  30
   1   1
     6.230298626226233    -0.264955568967814    -0.235674563702641
    -0.290184584018948     6.141757917162018     0.205574874908256
    -0.239262519855755     0.208077877008125     6.523228172618007
   1   2
    -0.689881575820115    -0.684497343354623     0.030064852222908
    -0.673348305323988    -0.704678338948221     0.024698327593801
    -0.011926359303197    -0.027969589306321    -0.065132664680822
   1   3
    -0.016688411735835    -0.052394198593018    -0.007994843238980
    -0.044176410758156     0.005042301642192     0.007395925945756
    -0.007912943745582    -0.005506710169921     0.040356382243987
   1   4
    -0.016827501429152    -0.045149681429859    -0.008226666421044
    -0.051465574476940     0.005241606523414    -0.005575733207472
    -0.008136679512544     0.007269828539522     0.039998796920110
   1   5
    -0.691019717051891    -0.674735208423782    -0.012817533833180
    -0.683807743986150    -0.704760311149443    -0.027846962206388
     0.029647372632385     0.024342712916623    -0.065649197677908
   1   6
    -0.029971468481204    -0.026137689227825    -0.018395742400736
    -0.025547797813965    -0.745482951953896     0.830614851347492
    -0.018574501770881     0.830861009822103    -0.782130762831173
   1   7
    -0.001055320602214    -0.031218110975402    -0.029864707725753
    -0.030090056268908    -0.017690442163671     0.030599684456317
    -0.030435505085122     0.030871080151572    -0.002626572039340
   1   8
    -0.002694105168501     0.026992926666708    -0.000551096258762
     0.028117176691996     0.002319643355113    -0.029879418236514
    -0.001007549299768    -0.030143529323855     0.000919303361386
   1   9
    -0.062827663196644     0.017542570044159     0.043468861099249
     0.018008060899271    -0.052841439061499    -0.004520854092890
     0.044576973163435    -0.004889640008746    -0.047739994744154
   1  10
    -0.764364925143942    -0.028000923459108    -0.827232804137890
    -0.027134368356982    -0.029432818829980     0.008261880195368
    -0.826765564713194     0.008159030867208    -0.771784189608353
   1  11
    -0.922551784717547     1.032044666599075    -0.001420950423432
     1.038815150204072    -0.918688152713840     0.006027873956369
    -0.012076776414046     0.008192068807267     0.096703803276915
   1  12
     0.006394391990034    -0.000272118440289     0.000989108248509
     0.012335067137756    -0.067305401087480    -0.008172255570309
     0.000655774414335     0.009766758844222     0.016082637089964
   1  13
     0.003339293200269    -0.002120482146307     0.005813259318531
     0.004572345453202    -0.036993839135505     0.001217931961220
     0.012040062395271    -0.002729626846272     0.013669118677325
   1  14
    -0.639300639073184     0.709363645735563    -0.018493600318945
     0.715619123685781    -0.644359497899577     0.014967331585297
    -0.006137419442967     0.002828788257495     0.077739888145267
   1  15
    -0.092852849998508     0.006128744336039    -0.000498837860899
    -0.020661897820273     0.034817770700685    -0.000403860802708
    -0.013057248742309     0.008309876986160     0.037893446794681
   1  16
    -0.022234831257307     0.015939263286697    -0.032039606685573
     0.005220533210377     0.009472599825944    -0.019186199497727
    -0.030901721434351    -0.014815244319726    -0.021607895741745
   1  17
     0.002437790596281    -0.009517299383705    -0.019697273177536
    -0.000406709495055     0.006989042722225     0.023830723307100
    -0.005362304215365     0.022336086645067    -0.010796104850363
   1  18
     0.043967446937194     0.009970728089713     0.001214177907273
     0.002963678951824    -0.775230657259169     0.803093683619982
     0.004228036932534     0.800180043639739    -0.765208281520394
   1  19
    -0.745458584181313     0.002232514943682    -0.766064666154110
     0.009896380966547     0.043209941657059    -0.000977720304953
    -0.771101476904516    -0.008170430185517    -0.741782469563876
   1  20
    -0.029183959562350     0.008885917105700     0.026137786229039
     0.014336247521329    -0.020121891765005    -0.011376235397147
     0.017429292630170    -0.008222670905632    -0.036149312853574
   1  21
    -0.907700465850626    -0.009756348376658     0.998355575684745
    -0.010276308238096     0.110876137686573     0.007608195146397
     1.018167758426039     0.005826154574563    -0.881561658871722
   1  22
    -0.015834151870634     0.001408756799378     0.003017803994111
     0.000753816461386    -0.008590303447204    -0.013512727391566
    -0.002399642202166    -0.012018157191646    -0.010388463139770
   1  23
    -0.008933001098169     0.016383674423848     0.022762093494904
     0.018293299596078    -0.011912784997738     0.028077190302182
     0.017666049943724     0.032474159558801    -0.021012120709939
   1  24
     0.012175409557038    -0.012048481740438     0.004984476976541
    -0.009120254195336     0.008587813719290    -0.009519605016186
     0.003099033307468    -0.012395121140010    -0.024775654909729
   1  25
     0.087968431834868    -0.004318293302093    -0.018229717231277
    -0.005497631225276    -0.917867320183635    -1.010092580252681
    -0.011037571020381    -1.031710677361140    -0.903594539615041
   1  26
     0.068235467624724    -0.008954916788646    -0.027417884528790
    -0.007714672101450    -0.791492005705334    -0.891613550184134
    -0.020020309267101    -0.858121383707820    -0.807749719536810
   1  27
     0.022750677814953    -0.006809813895497    -0.001916666969686
     0.001737131359783     0.025381883626173     0.001636106611984
     0.010040928035739    -0.014750761323580    -0.056322996608289
   1  28
    -0.011653594473120     0.019872888924979     0.015572488374241
     0.024411352711055    -0.020565461753576     0.026066118170572
     0.017356517852083     0.026702285420841    -0.016618623671996
   1  29
    -0.022542946401624     0.003146214710501    -0.008427465295406
     0.000330691753966    -0.010263932998451    -0.002263428040441
    -0.009330066118241    -0.005286053417922    -0.010716999990716
   1  30
    -0.783989038648694    -0.009025532797484     0.882585642842430
    -0.015977469764830     0.084580318064526     0.015270553276587
     0.850537217562082     0.010532673713635    -0.803243910315549
   2   1
    -0.691019717051891    -0.674735208423782    -0.012817533833180
    -0.683807743986150    -0.704760311149443    -0.027846962206388
     0.029647372632385     0.024342712916623    -0.065649197677908
   2   2
     6.230298626226233    -0.264955568967814    -0.235674563702641
    -0.290184584018948     6.141757917162018     0.205574874908256
    -0.239262519855755     0.208077877008125     6.523228172618007
   2   3
    -0.689881575820115    -0.684497343354623     0.030064852222908
    -0.673348305323988    -0.704678338948221     0.024698327593801
    -0.011926359303197    -0.027969589306321    -0.065132664680822
   2   4
    -0.016688411735835    -0.052394198593018    -0.007994843238980
    -0.044176410758156     0.005042301642192     0.007395925945756
    -0.007912943745582    -0.005506710169921     0.040356382243987
   2   5
    -0.016827501429152    -0.045149681429859    -0.008226666421044
    -0.051465574476940     0.005241606523414    -0.005575733207472
    -0.008136679512544     0.007269828539522     0.039998796920110
   2   6
    -0.764364925143942    -0.028000923459108    -0.827232804137890
    -0.027134368356982    -0.029432818829980     0.008261880195368
    -0.826765564713194     0.008159030867208    -0.771784189608353
   2   7
    -0.029971468481204    -0.026137689227825    -0.018395742400736
    -0.025547797813965    -0.745482951953896     0.830614851347492
    -0.018574501770881     0.830861009822103    -0.782130762831173
   2   8
    -0.001055320602214    -0.031218110975402    -0.029864707725753
    -0.030090056268908    -0.017690442163671     0.030599684456317
    -0.030435505085122     0.030871080151572    -0.002626572039340
   2   9
    -0.002694105168501     0.026992926666708    -0.000551096258762
     0.028117176691996     0.002319643355113    -0.029879418236514
    -0.001007549299768    -0.030143529323855     0.000919303361386
   2  10
    -0.062827663196644     0.017542570044159     0.043468861099249
     0.018008060899271    -0.052841439061499    -0.004520854092890
     0.044576973163435    -0.004889640008746    -0.047739994744154
   2  11
    -0.092852849998508     0.006128744336039    -0.000498837860899
    -0.020661897820273     0.034817770700685    -0.000403860802708
    -0.013057248742309     0.008309876986160     0.037893446794681
   2  12
    -0.922551784717547     1.032044666599075    -0.001420950423432
     1.038815150204072    -0.918688152713840     0.006027873956369
    -0.012076776414046     0.008192068807267     0.096703803276915
   2  13
     0.006394391990034    -0.000272118440289     0.000989108248509
     0.012335067137756    -0.067305401087480    -0.008172255570309
     0.000655774414335     0.009766758844222     0.016082637089964
   2  14
     0.003339293200269    -0.002120482146307     0.005813259318531
     0.004572345453202    -0.036993839135505     0.001217931961220
     0.012040062395271    -0.002729626846272     0.013669118677325
   2  15
    -0.639300639073184     0.709363645735563    -0.018493600318945
     0.715619123685781    -0.644359497899577     0.014967331585297
    -0.006137419442967     0.002828788257495     0.077739888145267
   2  16
    -0.029183959562350     0.008885917105700     0.026137786229039
     0.014336247521329    -0.020121891765005    -0.011376235397147
     0.017429292630170    -0.008222670905632    -0.036149312853574
   2  17
    -0.022234831257307     0.015939263286697    -0.032039606685573
     0.005220533210377     0.009472599825944    -0.019186199497727
    -0.030901721434351    -0.014815244319726    -0.021607895741745
   2  18
     0.002437790596281    -0.009517299383705    -0.019697273177536
    -0.000406709495055     0.006989042722225     0.023830723307100
    -0.005362304215365     0.022336086645067    -0.010796104850363
   2  19
     0.043967446937194     0.009970728089713     0.001214177907273
     0.002963678951824    -0.775230657259169     0.803093683619982
     0.004228036932534     0.800180043639739    -0.765208281520394
   2  20
    -0.745458584181313     0.002232514943682    -0.766064666154110
     0.009896380966547     0.043209941657059    -0.000977720304953
    -0.771101476904516    -0.008170430185517    -0.741782469563876
   2  21
     0.087968431834868    -0.004318293302093    -0.018229717231277
    -0.005497631225276    -0.917867320183635    -1.010092580252681
    -0.011037571020381    -1.031710677361140    -0.903594539615041
   2  22
    -0.907700465850626    -0.009756348376658     0.998355575684745
    -0.010276308238096     0.110876137686573     0.007608195146397
     1.018167758426039     0.005826154574563    -0.881561658871722
   2  23
    -0.015834151870634     0.001408756799378     0.003017803994111
     0.000753816461386    -0.008590303447204    -0.013512727391566
    -0.002399642202166    -0.012018157191646    -0.010388463139770
   2  24
    -0.008933001098169     0.016383674423848     0.022762093494904
     0.018293299596078    -0.011912784997738     0.028077190302182
     0.017666049943724     0.032474159558801    -0.021012120709939
   2  25
     0.012175409557038    -0.012048481740438     0.004984476976541
    -0.009120254195336     0.008587813719290    -0.009519605016186
     0.003099033307468    -0.012395121140010    -0.024775654909729
   2  26
    -0.783989038648694    -0.009025532797484     0.882585642842430
    -0.015977469764830     0.084580318064526     0.015270553276587
     0.850537217562082     0.010532673713635    -0.803243910315549
   2  27
     0.068235467624724    -0.008954916788646    -0.027417884528790
    -0.007714672101450    -0.791492005705334    -0.891613550184134
    -0.020020309267101    -0.858121383707820    -0.807749719536810
   2  28
     0.022750677814953    -0.006809813895497    -0.001916666969686
     0.001737131359783     0.025381883626173     0.001636106611984
     0.010040928035739    -0.014750761323580    -0.056322996608289
   2  29
    -0.011653594473120     0.019872888924979     0.015572488374241
     0.024411352711055    -0.020565461753576     0.026066118170572
     0.017356517852083     0.026702285420841    -0.016618623671996
   2  30
    -0.022542946401624     0.003146214710501    -0.008427465295406
     0.000330691753966    -0.010263932998451    -0.002263428040441
    -0.009330066118241    -0.005286053417922    -0.010716999990716
   3   1
    -0.016827501429152    -0.045149681429859    -0.008226666421044
    -0.051465574476940     0.005241606523414    -0.005575733207472
    -0.008136679512544     0.007269828539522     0.039998796920110
   3   2
    -0.691019717051891    -0.674735208423782    -0.012817533833180
    -0.683807743986150    -0.704760311149443    -0.027846962206388
     0.029647372632385     0.024342712916623    -0.065649197677908
   3   3
     6.230298626226233    -0.264955568967814    -0.235674563702641
    -0.290184584018948     6.141757917162018     0.205574874908256
    -0.239262519855755     0.208077877008125     6.523228172618007
   3   4
    -0.689881575820115    -0.684497343354623     0.030064852222908
    -0.673348305323988    -0.704678338948221     0.024698327593801
    -0.011926359303197    -0.027969589306321    -0.065132664680822
   3   5
    -0.016688411735835    -0.052394198593018    -0.007994843238980
    -0.044176410758156     0.005042301642192     0.007395925945756
    -0.007912943745582    -0.005506710169921     0.040356382243987
   3   6
    -0.062827663196644     0.017542570044159     0.043468861099249
     0.018008060899271    -0.052841439061499    -0.004520854092890
     0.044576973163435    -0.004889640008746    -0.047739994744154
   3   7
    -0.764364925143942    -0.028000923459108    -0.827232804137890
    -0.027134368356982    -0.029432818829980     0.008261880195368
    -0.826765564713194     0.008159030867208    -0.771784189608353
   3   8
    -0.029971468481204    -0.026137689227825    -0.018395742400736
    -0.025547797813965    -0.745482951953896     0.830614851347492
    -0.018574501770881     0.830861009822103    -0.782130762831173
   3   9
    -0.001055320602214    -0.031218110975402    -0.029864707725753
    -0.030090056268908    -0.017690442163671     0.030599684456317
    -0.030435505085122     0.030871080151572    -0.002626572039340
   3  10
    -0.002694105168501     0.026992926666708    -0.000551096258762
     0.028117176691996     0.002319643355113    -0.029879418236514
    -0.001007549299768    -0.030143529323855     0.000919303361386
   3  11
    -0.639300639073184     0.709363645735563    -0.018493600318945
     0.715619123685781    -0.644359497899577     0.014967331585297
    -0.006137419442967     0.002828788257495     0.077739888145267
   3  12
    -0.092852849998508     0.006128744336039    -0.000498837860899
    -0.020661897820273     0.034817770700685    -0.000403860802708
    -0.013057248742309     0.008309876986160     0.037893446794681
   3  13
    -0.922551784717547     1.032044666599075    -0.001420950423432
     1.038815150204072    -0.918688152713840     0.006027873956369
    -0.012076776414046     0.008192068807267     0.096703803276915
   3  14
     0.006394391990034    -0.000272118440289     0.000989108248509
     0.012335067137756    -0.067305401087480    -0.008172255570309
     0.000655774414335     0.009766758844222     0.016082637089964
   3  15
     0.003339293200269    -0.002120482146307     0.005813259318531
     0.004572345453202    -0.036993839135505     0.001217931961220
     0.012040062395271    -0.002729626846272     0.013669118677325
   3  16
    -0.745458584181313     0.002232514943682    -0.766064666154110
     0.009896380966547     0.043209941657059    -0.000977720304953
    -0.771101476904516    -0.008170430185517    -0.741782469563876
   3  17
    -0.029183959562350     0.008885917105700     0.026137786229039
     0.014336247521329    -0.020121891765005    -0.011376235397147
     0.017429292630170    -0.008222670905632    -0.036149312853574
   3  18
    -0.022234831257307     0.015939263286697    -0.032039606685573
     0.005220533210377     0.009472599825944    -0.019186199497727
    -0.030901721434351    -0.014815244319726    -0.021607895741745
   3  19
     0.002437790596281    -0.009517299383705    -0.019697273177536
    -0.000406709495055     0.006989042722225     0.023830723307100
    -0.005362304215365     0.022336086645067    -0.010796104850363
   3  20
     0.043967446937194     0.009970728089713     0.001214177907273
     0.002963678951824    -0.775230657259169     0.803093683619982
     0.004228036932534     0.800180043639739    -0.765208281520394
   3  21
     0.012175409557038    -0.012048481740438     0.004984476976541
    -0.009120254195336     0.008587813719290    -0.009519605016186
     0.003099033307468    -0.012395121140010    -0.024775654909729
   3  22
     0.087968431834868    -0.004318293302093    -0.018229717231277
    -0.005497631225276    -0.917867320183635    -1.010092580252681
    -0.011037571020381    -1.031710677361140    -0.903594539615041
   3  23
    -0.907700465850626    -0.009756348376658     0.998355575684745
    -0.010276308238096     0.110876137686573     0.007608195146397
     1.018167758426039     0.005826154574563    -0.881561658871722
   3  24
    -0.015834151870634     0.001408756799378     0.003017803994111
     0.000753816461386    -0.008590303447204    -0.013512727391566
    -0.002399642202166    -0.012018157191646    -0.010388463139770
   3  25
    -0.008933001098169     0.016383674423848     0.022762093494904
     0.018293299596078    -0.011912784997738     0.028077190302182
     0.017666049943724     0.032474159558801    -0.021012120709939
   3  26
    -0.022542946401624     0.003146214710501    -0.008427465295406
     0.000330691753966    -0.010263932998451    -0.002263428040441
    -0.009330066118241    -0.005286053417922    -0.010716999990716
   3  27
    -0.783989038648694    -0.009025532797484     0.882585642842430
    -0.015977469764830     0.084580318064526     0.015270553276587
     0.850537217562082     0.010532673713635    -0.803243910315549
   3  28
     0.068235467624724    -0.008954916788646    -0.027417884528790
    -0.007714672101450    -0.791492005705334    -0.891613550184134
    -0.020020309267101    -0.858121383707820    -0.807749719536810
   3  29
     0.022750677814953    -0.006809813895497    -0.001916666969686
     0.001737131359783     0.025381883626173     0.001636106611984
     0.010040928035739    -0.014750761323580    -0.056322996608289
   3  30
    -0.011653594473120     0.019872888924979     0.015572488374241
     0.024411352711055    -0.020565461753576     0.026066118170572
     0.017356517852083     0.026702285420841    -0.016618623671996
   4   1
    -0.016688411735835    -0.052394198593018    -0.007994843238980
    -0.044176410758156     0.005042301642192     0.007395925945756
    -0.007912943745582    -0.005506710169921     0.040356382243987
   4   2
    -0.016827501429152    -0.045149681429859    -0.008226666421044
    -0.051465574476940     0.005241606523414    -0.005575733207472
    -0.008136679512544     0.007269828539522     0.039998796920110
   4   3
    -0.691019717051891    -0.674735208423782    -0.012817533833180
    -0.683807743986150    -0.704760311149443    -0.027846962206388
     0.029647372632385     0.024342712916623    -0.065649197677908
   4   4
     6.230298626226233    -0.264955568967814    -0.235674563702641
    -0.290184584018948     6.141757917162018     0.205574874908256
    -0.239262519855755     0.208077877008125     6.523228172618007
   4   5
    -0.689881575820115    -0.684497343354623     0.030064852222908
    -0.673348305323988    -0.704678338948221     0.024698327593801
    -0.011926359303197    -0.027969589306321    -0.065132664680822
   4   6
    -0.002694105168501     0.026992926666708    -0.000551096258762
     0.028117176691996     0.002319643355113    -0.029879418236514
    -0.001007549299768    -0.030143529323855     0.000919303361386
   4   7
    -0.062827663196644     0.017542570044159     0.043468861099249
     0.018008060899271    -0.052841439061499    -0.004520854092890
     0.044576973163435    -0.004889640008746    -0.047739994744154
   4   8
    -0.764364925143942    -0.028000923459108    -0.827232804137890
    -0.027134368356982    -0.029432818829980     0.008261880195368
    -0.826765564713194     0.008159030867208    -0.771784189608353
   4   9
    -0.029971468481204    -0.026137689227825    -0.018395742400736
    -0.025547797813965    -0.745482951953896     0.830614851347492
    -0.018574501770881     0.830861009822103    -0.782130762831173
   4  10
    -0.001055320602214    -0.031218110975402    -0.029864707725753
    -0.030090056268908    -0.017690442163671     0.030599684456317
    -0.030435505085122     0.030871080151572    -0.002626572039340
   4  11
     0.003339293200269    -0.002120482146307     0.005813259318531
     0.004572345453202    -0.036993839135505     0.001217931961220
     0.012040062395271    -0.002729626846272     0.013669118677325
   4  12
    -0.639300639073184     0.709363645735563    -0.018493600318945
     0.715619123685781    -0.644359497899577     0.014967331585297
    -0.006137419442967     0.002828788257495     0.077739888145267
   4  13
    -0.092852849998508     0.006128744336039    -0.000498837860899
    -0.020661897820273     0.034817770700685    -0.000403860802708
    -0.013057248742309     0.008309876986160     0.037893446794681
   4  14
    -0.922551784717547     1.032044666599075    -0.001420950423432
     1.038815150204072    -0.918688152713840     0.006027873956369
    -0.012076776414046     0.008192068807267     0.096703803276915
   4  15
     0.006394391990034    -0.000272118440289     0.000989108248509
     0.012335067137756    -0.067305401087480    -0.008172255570309
     0.000655774414335     0.009766758844222     0.016082637089964
   4  16
     0.043967446937194     0.009970728089713     0.001214177907273
     0.002963678951824    -0.775230657259169     0.803093683619982
     0.004228036932534     0.800180043639739    -0.765208281520394
   4  17
    -0.745458584181313     0.002232514943682    -0.766064666154110
     0.009896380966547     0.043209941657059    -0.000977720304953
    -0.771101476904516    -0.008170430185517    -0.741782469563876
   4  18
    -0.029183959562350     0.008885917105700     0.026137786229039
     0.014336247521329    -0.020121891765005    -0.011376235397147
     0.017429292630170    -0.008222670905632    -0.036149312853574
   4  19
    -0.022234831257307     0.015939263286697    -0.032039606685573
     0.005220533210377     0.009472599825944    -0.019186199497727
    -0.030901721434351    -0.014815244319726    -0.021607895741745
   4  20
     0.002437790596281    -0.009517299383705    -0.019697273177536
    -0.000406709495055     0.006989042722225     0.023830723307100
    -0.005362304215365     0.022336086645067    -0.010796104850363
   4  21
    -0.008933001098169     0.016383674423848     0.022762093494904
     0.018293299596078    -0.011912784997738     0.028077190302182
     0.017666049943724     0.032474159558801    -0.021012120709939
   4  22
     0.012175409557038    -0.012048481740438     0.004984476976541
    -0.009120254195336     0.008587813719290    -0.009519605016186
     0.003099033307468    -0.012395121140010    -0.024775654909729
   4  23
     0.087968431834868    -0.004318293302093    -0.018229717231277
    -0.005497631225276    -0.917867320183635    -1.010092580252681
    -0.011037571020381    -1.031710677361140    -0.903594539615041
   4  24
    -0.907700465850626    -0.009756348376658     0.998355575684745
    -0.010276308238096     0.110876137686573     0.007608195146397
     1.018167758426039     0.005826154574563    -0.881561658871722
   4  25
    -0.015834151870634     0.001408756799378     0.003017803994111
     0.000753816461386    -0.008590303447204    -0.013512727391566
    -0.002399642202166    -0.012018157191646    -0.010388463139770
   4  26
    -0.011653594473120     0.019872888924979     0.015572488374241
     0.024411352711055    -0.020565461753576     0.026066118170572
     0.017356517852083     0.026702285420841    -0.016618623671996
   4  27
    -0.022542946401624     0.003146214710501    -0.008427465295406
     0.000330691753966    -0.010263932998451    -0.002263428040441
    -0.009330066118241    -0.005286053417922    -0.010716999990716
   4  28
    -0.783989038648694    -0.009025532797484     0.882585642842430
    -0.015977469764830     0.084580318064526     0.015270553276587
     0.850537217562082     0.010532673713635    -0.803243910315549
   4  29
     0.068235467624724    -0.008954916788646    -0.027417884528790
    -0.007714672101450    -0.791492005705334    -0.891613550184134
    -0.020020309267101    -0.858121383707820    -0.807749719536810
   4  30
     0.022750677814953    -0.006809813895497    -0.001916666969686
     0.001737131359783     0.025381883626173     0.001636106611984
     0.010040928035739    -0.014750761323580    -0.056322996608289
   5   1
    -0.689881575820115    -0.684497343354623     0.030064852222908
    -0.673348305323988    -0.704678338948221     0.024698327593801
    -0.011926359303197    -0.027969589306321    -0.065132664680822
   5   2
    -0.016688411735835    -0.052394198593018    -0.007994843238980
    -0.044176410758156     0.005042301642192     0.007395925945756
    -0.007912943745582    -0.005506710169921     0.040356382243987
   5   3
    -0.016827501429152    -0.045149681429859    -0.008226666421044
    -0.051465574476940     0.005241606523414    -0.005575733207472
    -0.008136679512544     0.007269828539522     0.039998796920110
   5   4
    -0.691019717051891    -0.674735208423782    -0.012817533833180
    -0.683807743986150    -0.704760311149443    -0.027846962206388
     0.029647372632385     0.024342712916623    -0.065649197677908
   5   5
     6.230298626226233    -0.264955568967814    -0.235674563702641
    -0.290184584018948     6.141757917162018     0.205574874908256
    -0.239262519855755     0.208077877008125     6.523228172618007
   5   6
    -0.001055320602214    -0.031218110975402    -0.029864707725753
    -0.030090056268908    -0.017690442163671     0.030599684456317
    -0.030435505085122     0.030871080151572    -0.002626572039340
   5   7
    -0.002694105168501     0.026992926666708    -0.000551096258762
     0.028117176691996     0.002319643355113    -0.029879418236514
    -0.001007549299768    -0.030143529323855     0.000919303361386
   5   8
    -0.062827663196644     0.017542570044159     0.043468861099249
     0.018008060899271    -0.052841439061499    -0.004520854092890
     0.044576973163435    -0.004889640008746    -0.047739994744154
   5   9
    -0.764364925143942    -0.028000923459108    -0.827232804137890
    -0.027134368356982    -0.029432818829980     0.008261880195368
    -0.826765564713194     0.008159030867208    -0.771784189608353
   5  10
    -0.029971468481204    -0.026137689227825    -0.018395742400736
    -0.025547797813965    -0.745482951953896     0.830614851347492
    -0.018574501770881     0.830861009822103    -0.782130762831173
   5  11
     0.006394391990034    -0.000272118440289     0.000989108248509
     0.012335067137756    -0.067305401087480    -0.008172255570309
     0.000655774414335     0.009766758844222     0.016082637089964
   5  12
     0.003339293200269    -0.002120482146307     0.005813259318531
     0.004572345453202    -0.036993839135505     0.001217931961220
     0.012040062395271    -0.002729626846272     0.013669118677325
   5  13
    -0.639300639073184     0.709363645735563    -0.018493600318945
     0.715619123685781    -0.644359497899577     0.014967331585297
    -0.006137419442967     0.002828788257495     0.077739888145267
   5  14
    -0.092852849998508     0.006128744336039    -0.000498837860899
    -0.020661897820273     0.034817770700685    -0.000403860802708
    -0.013057248742309     0.008309876986160     0.037893446794681
   5  15
    -0.922551784717547     1.032044666599075    -0.001420950423432
     1.038815150204072    -0.918688152713840     0.006027873956369
    -0.012076776414046     0.008192068807267     0.096703803276915
   5  16
     0.002437790596281    -0.009517299383705    -0.019697273177536
    -0.000406709495055     0.006989042722225     0.023830723307100
    -0.005362304215365     0.022336086645067    -0.010796104850363
   5  17
     0.043967446937194     0.009970728089713     0.001214177907273
     0.002963678951824    -0.775230657259169     0.803093683619982
     0.004228036932534     0.800180043639739    -0.765208281520394
   5  18
    -0.745458584181313     0.002232514943682    -0.766064666154110
     0.009896380966547     0.043209941657059    -0.000977720304953
    -0.771101476904516    -0.008170430185517    -0.741782469563876
   5  19
    -0.029183959562350     0.008885917105700     0.026137786229039
     0.014336247521329    -0.020121891765005    -0.011376235397147
     0.017429292630170    -0.008222670905632    -0.036149312853574
   5  20
    -0.022234831257307     0.015939263286697    -0.032039606685573
     0.005220533210377     0.009472599825944    -0.019186199497727
    -0.030901721434351    -0.014815244319726    -0.021607895741745
   5  21
    -0.015834151870634     0.001408756799378     0.003017803994111
     0.000753816461386    -0.008590303447204    -0.013512727391566
    -0.002399642202166    -0.012018157191646    -0.010388463139770
   5  22
    -0.008933001098169     0.016383674423848     0.022762093494904
     0.018293299596078    -0.011912784997738     0.028077190302182
     0.017666049943724     0.032474159558801    -0.021012120709939
   5  23
     0.012175409557038    -0.012048481740438     0.004984476976541
    -0.009120254195336     0.008587813719290    -0.009519605016186