  30
   1   1
     6.158940881461375     0.052360362682295    -0.109002931301763
     0.106624176233782     5.894962622641234     0.079992352787047
    -0.090055580006658     0.032232545394931     6.199636883224179
   1   2
    -0.030002527921230     0.004628242381749     0.014888329895043
     0.034031317242603    -0.027159702215539     0.007861932185508
     0.029155871205949     0.042046992242714    -0.031423045571159
   1   3
    -0.028027885133903     0.018672059002603     0.014184765689898
     0.011124976777105    -0.007735375817800     0.021885245847751
     0.017037949109947     0.016429204843175    -0.026187662393242
   1   4
    -0.028026132497769     0.012977334847156     0.017976862188458
     0.016792306055225    -0.007735350278097     0.014780237873695
     0.013134362653939     0.023566747151943    -0.026041793575769
   1   5
    -0.030069741115439     0.035927027062659     0.030438272361760
     0.002798220326681    -0.027159949495923     0.040371275387164
     0.014101818645644     0.009456347029829    -0.031847451711377
   1   6
    -0.010636135217223    -0.018946000242397    -0.012410214481739
    -0.020880508086648    -0.759444607715275    -0.811709630567695
    -0.012782672594682    -0.810058685601741    -0.756697881954260
   1   7
     0.012198484538821     0.008555689059181    -0.020308301231462
     0.006656451742526     0.049198911308747     0.015101225909107
    -0.020656245156851     0.016615248699296    -0.042306284734335
   1   8
    -0.016582218192408     0.000644030301042    -0.006721562860510
    -0.001223774095959    -0.049330229512630    -0.003406656328265
    -0.007163522165151    -0.001790130091233    -0.022269206197367
   1   9
    -0.041054658708521     0.019461256259554    -0.021555632165444
     0.017617214749876     0.048138779778231     0.003408226262972
    -0.021689008194407     0.005127538720469     0.008035605621258
   1  10
    -0.752142621039850    -0.801238237420011    -0.010398299855137
    -0.803251493771570    -0.757423204109006    -0.022073492658452
    -0.010629146538133    -0.020307415536734    -0.009954685931314
   1  11
    -0.884933734439462    -0.009902427670097     0.995493384204206
    -0.009529883239082     0.105932921324020    -0.008104369348640
     0.995421658252973    -0.007918509395161    -0.884147424609058
   1  12
     0.013663002294740    -0.009077369028274    -0.012863559849380
    -0.008382958594649    -0.028908579721395    -0.059286867014229
    -0.012456589716583    -0.049217277707338    -0.045263065171379
   1  13
     0.077428036658802    -0.021586203412257     0.017440469016932
    -0.015937509620794    -0.691261557443891     0.791151527561138
     0.011361709784607     0.783067891644427    -0.710480071033671
   1  14
    -0.706088783486033     0.782696134995872     0.011483413634132
     0.788142443541470    -0.682753176928917    -0.016386884267060
     0.016878520658010    -0.020788711121553     0.079702166492542
   1  15
    -0.044572936955767    -0.045898777721956    -0.013542445233748
    -0.057239250381421    -0.027317004464249    -0.008063701958231
    -0.013138459832816    -0.007853334859421     0.014346911756467
   1  16
    -0.023294632971227    -0.017242722339838     0.021812775973031
    -0.024922165450301    -0.005684164920632    -0.010776228782866
     0.015732258450927    -0.006054593404867    -0.014050564448784
   1  17
    -0.760275511575913    -0.016501889985419    -0.809327228307045
    -0.009742613753974     0.043723335360772    -0.007483570327996
    -0.825800686447875    -0.012407222997399    -0.775858537196502
   1  18
     0.031193920393966    -0.014194440986741     0.005892096938959
     0.004774302002238    -0.059788206491563     0.008248500459615
     0.005581090855107    -0.011382079889877     0.033590242130950
   1  19
    -0.776662508779976    -0.013806292481746    -0.825155719351884
    -0.010515057686923     0.043923948146219    -0.008726302562899
    -0.810824067899267    -0.016591171086708    -0.757142095205872
   1  20
    -0.013485689912611    -0.006440730406887     0.015990985973283
    -0.014692952035984    -0.006693418527517    -0.021380670835008
     0.018669409323743    -0.015269710458219    -0.024083095800311
   1  21
    -0.681437043488889    -0.007294803809133     0.769979666972119
    -0.007282209203087     0.082496625039563    -0.007229002442334
     0.769182952537416    -0.005690399157528    -0.682614016746696
   1  22
     0.005930461782129    -0.002131571641005    -0.015558906695860
    -0.015840343369450     0.018809022234958     0.004966574261872
    -0.012061716961615    -0.001254261339100     0.017396857896758
   1  23
    -0.794844591472221     0.903924484215448     0.002072475479288
     0.867771104713900    -0.792910363213500    -0.009305673600240
    -0.002944161138328    -0.004016356601709     0.084761467868178
   1  24
     0.084762367268121    -0.006348671404500    -0.003341343018743
    -0.009573607199586    -0.809265416379096     0.879980439025023
     0.002629450822831     0.915502231556500    -0.809547348696008
   1  25
     0.016549172340876    -0.001724126758558    -0.012621688536269
     0.004286535194656     0.018772437525520    -0.018270823250780
    -0.017470913214235    -0.002038960819502     0.004257415356400
   1  26
    -0.786764197276571    -0.855275352621002    -0.006669453104522
    -0.864502032528493    -0.791732518056927    -0.004558180342217
    -0.003490042931250    -0.009586182221052     0.070626016250478
   1  27
    -0.060131667934851     0.010291659514018    -0.016843756762097
     0.015280693534752     0.014947859412929     0.004093026647482
    -0.013959756187926     0.000531425052309     0.003498123882411
   1  28
    -0.011683938968795     0.006410622056468    -0.006739193753623
    -0.000687340073310    -0.009923718881096     0.001019534931148
    -0.008148672607210     0.005768629647804    -0.012419082187137
   1  29
     0.005439813314437     0.001050880656609    -0.010567659019815
     0.003920797411117     0.015933904977189     0.016816369571229
    -0.016710805185639     0.013234700867084    -0.060084357220674
   1  30
     0.074612894987350    -0.009989657808947    -0.004026716769966
    -0.005617340487685    -0.794614823669542    -0.872912914266772
    -0.008906659289763    -0.861355406164883    -0.793432308425720
   2   1
    -0.030069741115439     0.035927027062659     0.030438272361760
     0.002798220326681    -0.027159949495923     0.040371275387164
     0.014101818645644     0.009456347029829    -0.031847451711377
   2   2
     6.158940881461375     0.052360362682295    -0.109002931301764
     0.106624176233782     5.894962622641234     0.079992352787047
    -0.090055580006658     0.032232545394931     6.199636883224179
   2   3
    -0.030002527921230     0.004628242381749     0.014888329895043
     0.034031317242603    -0.027159702215539     0.007861932185508
     0.029155871205949     0.042046992242714    -0.031423045571159
   2   4
    -0.028027885133903     0.018672059002603     0.014184765689898
     0.011124976777105    -0.007735375817800     0.021885245847751
     0.017037949109947     0.016429204843175    -0.026187662393242
   2   5
    -0.028026132497769     0.012977334847156     0.017976862188458
     0.016792306055225    -0.007735350278097     0.014780237873695
     0.013134362653939     0.023566747151943    -0.026041793575769
   2   6
    -0.752142621039850    -0.801238237420011    -0.010398299855137
    -0.803251493771570    -0.757423204109006    -0.022073492658452
    -0.010629146538133    -0.020307415536734    -0.009954685931314
   2   7
    -0.010636135217223    -0.018946000242397    -0.012410214481739
    -0.020880508086648    -0.759444607715275    -0.811709630567695
    -0.012782672594682    -0.810058685601741    -0.756697881954260
   2   8
     0.012198484538821     0.008555689059181    -0.020308301231462
     0.006656451742526     0.049198911308747     0.015101225909107
    -0.020656245156851     0.016615248699296    -0.042306284734335
   2   9
    -0.016582218192408     0.000644030301042    -0.006721562860510
    -0.001223774095959    -0.049330229512630    -0.003406656328265
    -0.007163522165151    -0.001790130091233    -0.022269206197367
   2  10
    -0.041054658708521     0.019461256259554    -0.021555632165444
     0.017617214749876     0.048138779778231     0.003408226262972
    -0.021689008194407     0.005127538720469     0.008035605621258
   2  11
    -0.044572936955767    -0.045898777721956    -0.013542445233748
    -0.057239250381421    -0.027317004464249    -0.008063701958231
    -0.013138459832816    -0.007853334859421     0.014346911756467
   2  12
    -0.884933734439462    -0.009902427670097     0.995493384204206
    -0.009529883239082     0.105932921324020    -0.008104369348640
     0.995421658252973    -0.007918509395161    -0.884147424609058
   2  13
     0.013663002294740    -0.009077369028274    -0.012863559849380
    -0.008382958594649    -0.028908579721395    -0.059286867014229
    -0.012456589716583    -0.049217277707338    -0.045263065171379
   2  14
     0.077428036658802    -0.021586203412257     0.017440469016932
    -0.015937509620794    -0.691261557443891     0.791151527561138
     0.011361709784607     0.783067891644427    -0.710480071033671
   2  15
    -0.706088783486033     0.782696134995872     0.011483413634132
     0.788142443541470    -0.682753176928917    -0.016386884267060
     0.016878520658011    -0.020788711121553     0.079702166492542
   2  16
    -0.013485689912611    -0.006440730406887     0.015990985973283
    -0.014692952035984    -0.006693418527517    -0.021380670835008
     0.018669409323743    -0.015269710458219    -0.024083095800311
   2  17
    -0.023294632971227    -0.017242722339838     0.021812775973031
    -0.024922165450301    -0.005684164920632    -0.010776228782866
     0.015732258450927    -0.006054593404867    -0.014050564448784
   2  18
    -0.760275511575913    -0.016501889985419    -0.809327228307045
    -0.009742613753974     0.043723335360772    -0.007483570327996
    -0.825800686447875    -0.012407222997399    -0.775858537196502
   2  19
     0.031193920393966    -0.014194440986741     0.005892096938959
     0.004774302002238    -0.059788206491563     0.008248500459615
     0.005581090855107    -0.011382079889877     0.033590242130950
   2  20
    -0.776662508779976    -0.013806292481746    -0.825155719351884
    -0.010515057686923     0.043923948146219    -0.008726302562899
    -0.810824067899267    -0.016591171086708    -0.757142095205872
   2  21
     0.016549172340876    -0.001724126758558    -0.012621688536269
     0.004286535194656     0.018772437525520    -0.018270823250780
    -0.017470913214235    -0.002038960819502     0.004257415356400
   2  22
    -0.681437043488889    -0.007294803809133     0.769979666972119
    -0.007282209203087     0.082496625039563    -0.007229002442334
     0.769182952537416    -0.005690399157528    -0.682614016746696
   2  23
     0.005930461782129    -0.002131571641005    -0.015558906695860
    -0.015840343369450     0.018809022234958     0.004966574261872
    -0.012061716961615    -0.001254261339100     0.017396857896758
   2  24
    -0.794844591472221     0.903924484215448     0.002072475479288
     0.867771104713900    -0.792910363213500    -0.009305673600241
    -0.002944161138328    -0.004016356601709     0.084761467868178
   2  25
     0.084762367268121    -0.006348671404501    -0.003341343018743
    -0.009573607199586    -0.809265416379096     0.879980439025023
     0.002629450822831     0.915502231556500    -0.809547348696008
   2  26
     0.074612894987350    -0.009989657808947    -0.004026716769966
    -0.005617340487685    -0.794614823669542    -0.872912914266772
    -0.008906659289763    -0.861355406164883    -0.793432308425720
   2  27
    -0.786764197276571    -0.855275352621002    -0.006669453104522
    -0.864502032528493    -0.791732518056927    -0.004558180342217
    -0.003490042931250    -0.009586182221052     0.070626016250478
   2  28
    -0.060131667934851     0.010291659514018    -0.016843756762097
     0.015280693534752     0.014947859412929     0.004093026647482
    -0.013959756187926     0.000531425052309     0.003498123882411
   2  29
    -0.011683938968795     0.006410622056468    -0.006739193753623
    -0.000687340073310    -0.009923718881096     0.001019534931148
    -0.008148672607210     0.005768629647804    -0.012419082187137
   2  30
     0.005439813314437     0.001050880656609    -0.010567659019815
     0.003920797411117     0.015933904977189     0.016816369571229
    -0.016710805185639     0.013234700867084    -0.060084357220674
   3   1
    -0.028026132497769     0.012977334847156     0.017976862188458
     0.016792306055225    -0.007735350278097     0.014780237873695
     0.013134362653939     0.023566747151943    -0.026041793575769
   3   2
    -0.030069741115439     0.035927027062659     0.030438272361760
     0.002798220326681    -0.027159949495923     0.040371275387164
     0.014101818645644     0.009456347029829    -0.031847451711377
   3   3
     6.158940881461375     0.052360362682295    -0.109002931301764
     0.106624176233782     5.894962622641234     0.079992352787047
    -0.090055580006658     0.032232545394931     6.199636883224179
   3   4
    -0.030002527921230     0.004628242381749     0.014888329895043
     0.034031317242603    -0.027159702215539     0.007861932185508
     0.029155871205949     0.042046992242714    -0.031423045571159
   3   5
    -0.028027885133903     0.018672059002603     0.014184765689898
     0.011124976777105    -0.007735375817800     0.021885245847751
     0.017037949109947     0.016429204843175    -0.026187662393242
   3   6
    -0.041054658708521     0.019461256259554    -0.021555632165444
     0.017617214749876     0.048138779778231     0.003408226262972
    -0.021689008194407     0.005127538720469     0.008035605621258
   3   7
    -0.752142621039850    -0.801238237420011    -0.010398299855137
    -0.803251493771570    -0.757423204109006    -0.022073492658452
    -0.010629146538133    -0.020307415536734    -0.009954685931314
   3   8
    -0.010636135217223    -0.018946000242397    -0.012410214481739
    -0.020880508086648    -0.759444607715275    -0.811709630567695
    -0.012782672594682    -0.810058685601741    -0.756697881954260
   3   9
     0.012198484538821     0.008555689059181    -0.020308301231462
     0.006656451742526     0.049198911308747     0.015101225909107
    -0.020656245156851     0.016615248699296    -0.042306284734335
   3  10
    -0.016582218192408     0.000644030301042    -0.006721562860510
    -0.001223774095959    -0.049330229512630    -0.003406656328265
    -0.007163522165151    -0.001790130091233    -0.022269206197367
   3  11
    -0.706088783486033     0.782696134995872     0.011483413634132
     0.788142443541470    -0.682753176928917    -0.016386884267060
     0.016878520658011    -0.020788711121553     0.079702166492542
   3  12
    -0.044572936955767    -0.045898777721956    -0.013542445233748
    -0.057239250381421    -0.027317004464249    -0.008063701958231
    -0.013138459832816    -0.007853334859421     0.014346911756467
   3  13
    -0.884933734439462    -0.009902427670097     0.995493384204206
    -0.009529883239082     0.105932921324020    -0.008104369348640
     0.995421658252973    -0.007918509395161    -0.884147424609058
   3  14
     0.013663002294740    -0.009077369028274    -0.012863559849380
    -0.008382958594649    -0.028908579721395    -0.059286867014229
    -0.012456589716583    -0.049217277707338    -0.045263065171379
   3  15
     0.077428036658802    -0.021586203412257     0.017440469016932
    -0.015937509620794    -0.691261557443891     0.791151527561138
     0.011361709784607     0.783067891644427    -0.710480071033671
   3  16
    -0.776662508779976    -0.013806292481746    -0.825155719351884
    -0.010515057686923     0.043923948146219    -0.008726302562899
    -0.810824067899267    -0.016591171086708    -0.757142095205872
   3  17
    -0.013485689912611    -0.006440730406887     0.015990985973283
    -0.014692952035984    -0.006693418527517    -0.021380670835008
     0.018669409323743    -0.015269710458219    -0.024083095800311
   3  18
    -0.023294632971227    -0.017242722339838     0.021812775973031
    -0.024922165450301    -0.005684164920632    -0.010776228782866
     0.015732258450927    -0.006054593404867    -0.014050564448784
   3  19
    -0.760275511575913    -0.016501889985419    -0.809327228307045
    -0.009742613753974     0.043723335360772    -0.007483570327996
    -0.825800686447875    -0.012407222997399    -0.775858537196502
   3  20
     0.031193920393966    -0.014194440986741     0.005892096938959
     0.004774302002238    -0.059788206491563     0.008248500459615
     0.005581090855107    -0.011382079889877     0.033590242130950
   3  21
     0.084762367268121    -0.006348671404501    -0.003341343018743
    -0.009573607199586    -0.809265416379096     0.879980439025023
     0.002629450822831     0.915502231556500    -0.809547348696008
   3  22
     0.016549172340876    -0.001724126758558    -0.012621688536269
     0.004286535194656     0.018772437525520    -0.018270823250780
    -0.017470913214235    -0.002038960819502     0.004257415356400
   3  23
    -0.681437043488889    -0.007294803809133     0.769979666972119
    -0.007282209203087     0.082496625039563    -0.007229002442334
     0.769182952537416    -0.005690399157528    -0.682614016746696
   3  24
     0.005930461782129    -0.002131571641005    -0.015558906695860
    -0.015840343369450     0.018809022234958     0.004966574261872
    -0.012061716961615    -0.001254261339100     0.017396857896758
   3  25
    -0.794844591472221     0.903924484215448     0.002072475479288
     0.867771104713900    -0.792910363213500    -0.009305673600241
    -0.002944161138328    -0.004016356601709     0.084761467868178
   3  26
     0.005439813314437     0.001050880656609    -0.010567659019815
     0.003920797411117     0.015933904977189     0.016816369571229
    -0.016710805185639     0.013234700867084    -0.060084357220674
   3  27
     0.074612894987350    -0.009989657808947    -0.004026716769966
    -0.005617340487685    -0.794614823669542    -0.872912914266772
    -0.008906659289763    -0.861355406164883    -0.793432308425720
   3  28
    -0.786764197276571    -0.855275352621002    -0.006669453104522
    -0.864502032528493    -0.791732518056927    -0.004558180342217
    -0.003490042931250    -0.009586182221052     0.070626016250478
   3  29
    -0.060131667934851     0.010291659514018    -0.016843756762097
     0.015280693534752     0.014947859412929     0.004093026647482
    -0.013959756187926     0.000531425052309     0.003498123882411
   3  30
    -0.011683938968795     0.006410622056468    -0.006739193753623
    -0.000687340073310    -0.009923718881096     0.001019534931148
    -0.008148672607210     0.005768629647804    -0.012419082187137
   4   1
    -0.028027885133903     0.018672059002603     0.014184765689898
     0.011124976777105    -0.007735375817800     0.021885245847751
     0.017037949109947     0.016429204843175    -0.026187662393242
   4   2
    -0.028026132497769     0.012977334847156     0.017976862188458
     0.016792306055225    -0.007735350278097     0.014780237873695
     0.013134362653939     0.023566747151943    -0.026041793575769
   4   3
    -0.030069741115439     0.035927027062659     0.030438272361760
     0.002798220326681    -0.027159949495923     0.040371275387164
     0.014101818645644     0.009456347029829    -0.031847451711377
   4   4
     6.158940881461375     0.052360362682295    -0.109002931301764
     0.106624176233782     5.894962622641234     0.079992352787047
    -0.090055580006658     0.032232545394931     6.199636883224179
   4   5
    -0.030002527921230     0.004628242381749     0.014888329895043
     0.034031317242603    -0.027159702215539     0.007861932185508
     0.029155871205949     0.042046992242714    -0.031423045571159
   4   6
    -0.016582218192408     0.000644030301042    -0.006721562860510
    -0.001223774095959    -0.049330229512630    -0.003406656328265
    -0.007163522165151    -0.001790130091233    -0.022269206197367
   4   7
    -0.041054658708521     0.019461256259554    -0.021555632165444
     0.017617214749876     0.048138779778231     0.003408226262972
    -0.021689008194407     0.005127538720469     0.008035605621258
   4   8
    -0.752142621039850    -0.801238237420011    -0.010398299855137
    -0.803251493771570    -0.757423204109006    -0.022073492658452
    -0.010629146538133    -0.020307415536734    -0.009954685931314
   4   9
    -0.010636135217223    -0.018946000242397    -0.012410214481739
    -0.020880508086648    -0.759444607715275    -0.811709630567695
    -0.012782672594682    -0.810058685601741    -0.756697881954260
   4  10
     0.012198484538821     0.008555689059181    -0.020308301231462
     0.006656451742526     0.049198911308747     0.015101225909107
    -0.020656245156851     0.016615248699296    -0.042306284734335
   4  11
     0.077428036658802    -0.021586203412257     0.017440469016932
    -0.015937509620794    -0.691261557443891     0.791151527561138
     0.011361709784607     0.783067891644427    -0.710480071033671
   4  12
    -0.706088783486033     0.782696134995872     0.011483413634132
     0.788142443541470    -0.682753176928917    -0.016386884267060
     0.016878520658011    -0.020788711121553     0.079702166492542
   4  13
    -0.044572936955767    -0.045898777721956    -0.013542445233748
    -0.057239250381421    -0.027317004464249    -0.008063701958231
    -0.013138459832816    -0.007853334859421     0.014346911756467
   4  14
    -0.884933734439462    -0.009902427670097     0.995493384204206
    -0.009529883239082     0.105932921324020    -0.008104369348640
     0.995421658252973    -0.007918509395161    -0.884147424609058
   4  15
     0.013663002294740    -0.009077369028274    -0.012863559849380
    -0.008382958594649    -0.028908579721395    -0.059286867014229
    -0.012456589716583    -0.049217277707338    -0.045263065171379
   4  16
     0.031193920393966    -0.014194440986741     0.005892096938959
     0.004774302002238    -0.059788206491563     0.008248500459615
     0.005581090855107    -0.011382079889877     0.033590242130950
   4  17
    -0.776662508779976    -0.013806292481746    -0.825155719351884
    -0.010515057686923     0.043923948146219    -0.008726302562899
    -0.810824067899267    -0.016591171086708    -0.757142095205872
   4  18
    -0.013485689912611    -0.006440730406887     0.015990985973283
    -0.014692952035984    -0.006693418527517    -0.021380670835008
     0.018669409323743    -0.015269710458219    -0.024083095800311
   4  19
    -0.023294632971227    -0.017242722339838     0.021812775973031
    -0.024922165450301    -0.005684164920632    -0.010776228782866
     0.015732258450927    -0.006054593404867    -0.014050564448784
   4  20
    -0.760275511575913    -0.016501889985419    -0.809327228307045
    -0.009742613753974     0.043723335360772    -0.007483570327996
    -0.825800686447875    -0.012407222997399    -0.775858537196502
   4  21
    -0.794844591472221     0.903924484215448     0.002072475479288
     0.867771104713900    -0.792910363213500    -0.009305673600241
    -0.002944161138328    -0.004016356601709     0.084761467868178
   4  22
     0.084762367268121    -0.006348671404501    -0.003341343018743
    -0.009573607199586    -0.809265416379096     0.879980439025023
     0.002629450822831     0.915502231556500    -0.809547348696008
   4  23
     0.016549172340876    -0.001724126758558    -0.012621688536269
     0.004286535194656     0.018772437525520    -0.018270823250780
    -0.017470913214235    -0.002038960819502     0.004257415356400
   4  24
    -0.681437043488889    -0.007294803809133     0.769979666972119
    -0.007282209203087     0.082496625039563    -0.007229002442334
     0.769182952537416    -0.005690399157528    -0.682614016746696
   4  25
     0.005930461782129    -0.002131571641005    -0.015558906695860
    -0.015840343369450     0.018809022234958     0.004966574261872
    -0.012061716961615    -0.001254261339100     0.017396857896758
   4  26
    -0.011683938968795     0.006410622056468    -0.006739193753623
    -0.000687340073310    -0.009923718881096     0.001019534931148
    -0.008148672607210     0.005768629647804    -0.012419082187137
   4  27
     0.005439813314437     0.001050880656609    -0.010567659019815
     0.003920797411117     0.015933904977189     0.016816369571229
    -0.016710805185639     0.013234700867084    -0.060084357220674
   4  28
     0.074612894987350    -0.009989657808947    -0.004026716769966
    -0.005617340487685    -0.794614823669542    -0.872912914266772
    -0.008906659289763    -0.861355406164883    -0.793432308425720
   4  29
    -0.786764197276571    -0.855275352621002    -0.006669453104522
    -0.864502032528493    -0.791732518056927    -0.004558180342217
    -0.003490042931250    -0.009586182221052     0.070626016250478
   4  30
    -0.060131667934851     0.010291659514018    -0.016843756762097
     0.015280693534752     0.014947859412929     0.004093026647482
    -0.013959756187926     0.000531425052309     0.003498123882411
   5   1
    -0.030002527921230     0.004628242381749     0.014888329895043
     0.034031317242603    -0.027159702215539     0.007861932185508
     0.029155871205949     0.042046992242714    -0.031423045571159
   5   2
    -0.028027885133903     0.018672059002603     0.014184765689898
     0.011124976777105    -0.007735375817800     0.021885245847751
     0.017037949109947     0.016429204843175    -0.026187662393242
   5   3
    -0.028026132497769     0.012977334847156     0.017976862188458
     0.016792306055225    -0.007735350278097     0.014780237873695
     0.013134362653939     0.023566747151943    -0.026041793575769
   5   4
    -0.030069741115439     0.035927027062659     0.030438272361760
     0.002798220326681    -0.027159949495923     0.040371275387164
     0.014101818645644     0.009456347029829    -0.031847451711377
   5   5
     6.158940881461375     0.052360362682295    -0.109002931301764
     0.106624176233782     5.894962622641234     0.079992352787047
    -0.090055580006658     0.032232545394931     6.199636883224179
   5   6
     0.012198484538821     0.008555689059181    -0.020308301231462
     0.006656451742526     0.049198911308747     0.015101225909107
    -0.020656245156851     0.016615248699296    -0.042306284734335
   5   7
    -0.016582218192408     0.000644030301042    -0.006721562860510
    -0.001223774095959    -0.049330229512630    -0.003406656328265
    -0.007163522165151    -0.001790130091233    -0.022269206197367
   5   8
    -0.041054658708521     0.019461256259554    -0.021555632165444
     0.017617214749876     0.048138779778231     0.003408226262972
    -0.021689008194407     0.005127538720469     0.008035605621258
   5   9
    -0.752142621039850    -0.801238237420011    -0.010398299855137
    -0.803251493771570    -0.757423204109006    -0.022073492658452
    -0.010629146538133    -0.020307415536734    -0.009954685931314
   5  10
    -0.010636135217223    -0.018946000242397    -0.012410214481739
    -0.020880508086648    -0.759444607715275    -0.811709630567695
    -0.012782672594682    -0.810058685601741    -0.756697881954260
   5  11
     0.013663002294740    -0.009077369028274    -0.012863559849380
    -0.008382958594649    -0.028908579721395    -0.059286867014229
    -0.012456589716583    -0.049217277707338    -0.045263065171379
   5  12
     0.077428036658802    -0.021586203412257     0.017440469016932
    -0.015937509620794    -0.691261557443891     0.791151527561138
     0.011361709784607     0.783067891644427    -0.710480071033671
   5  13
    -0.706088783486033     0.782696134995872     0.011483413634132
     0.788142443541470    -0.682753176928917    -0.016386884267060
     0.016878520658011    -0.020788711121553     0.079702166492542
   5  14
    -0.044572936955767    -0.045898777721956    -0.013542445233748
    -0.057239250381421    -0.027317004464249    -0.008063701958231
    -0.013138459832816    -0.007853334859421     0.014346911756467
   5  15
    -0.884933734439462    -0.009902427670097     0.995493384204206
    -0.009529883239082     0.105932921324020    -0.008104369348640
     0.995421658252973    -0.007918509395161    -0.884147424609058
   5  16
    -0.760275511575913    -0.016501889985419    -0.809327228307045
    -0.009742613753974     0.043723335360772    -0.007483570327996
    -0.825800686447875    -0.012407222997399    -0.775858537196502
   5  17
     0.031193920393966    -0.014194440986741     0.005892096938959
     0.004774302002238    -0.059788206491563     0.008248500459615
     0.005581090855107    -0.011382079889877     0.033590242130950
   5  18
    -0.776662508779976    -0.013806292481746    -0.825155719351884
    -0.010515057686923     0.043923948146219    -0.008726302562899
    -0.810824067899267    -0.016591171086708    -0.757142095205872
   5  19
    -0.013485689912611    -0.006440730406887     0.015990985973283
    -0.014692952035984    -0.006693418527517    -0.021380670835008
     0.018669409323743    -0.015269710458219    -0.024083095800311
   5  20
    -0.023294632971227    -0.017242722339838     0.021812775973031
    -0.024922165450301    -0.005684164920632    -0.010776228782866
     0.015732258450927    -0.006054593404867    -0.014050564448784
   5  21
     0.005930461782129    -0.002131571641005    -0.015558906695860
    -0.015840343369450     0.018809022234958     0.004966574261872
    -0.012061716961615    -0.001254261339100     0.017396857896758
   5  22
    -0.794844591472221     0.903924484215448     0.002072475479288
     0.867771104713900    -0.792910363213500    -0.009305673600241
    -0.002944161138328    -0.004016356601709     0.084761467868178
   5  23
     0.084762367268121    -0.006348671404501    -0.003341343018743
    -0.009573607199586    -0.809265416379096     0.879980439025023