30
Lattice="0.0009970754176303 -8.094491102076017 0.0013915218402412 2.034069461730663 -2.025279547965659 8.143144269039386 -8.153775207588204 2.0249491130569313 -2.0314914829843866" Properties=Z:I:1:pos:R:3:vasp_force:R:3 uuid=15263f1f-55c7-4989-b65b-8284869064f4 vasp_virial="-0.06952645528179614 -0.13235599958793542 -0.19726161775219284 -0.13235599958793542 -0.16919058273727408 -0.2543284843188284 -0.19726161775219284 -0.2543284843188284 0.10276251041039669" vasp_energy=-108.34855587 pbc="T T T"
      46      -2.04979577      -0.01041552       2.04752928      -0.00010400       0.06232400       0.00143300 
      46      -0.01182924      -4.04825769       4.08301132      -0.00201500       0.00232300       0.00137800 
      46      -6.12763668      -6.07115075       4.08700360      -0.00173900       0.00316100       0.00169600 
      46      -4.09066600      -2.02450182       6.12109583      -0.00184200       0.00331000       0.00177600 
      46      -4.08676769      -4.04706444       0.01343532      -0.00191600       0.00390200       0.00212300 
      46      -2.03047534      -6.07102651       4.06395406       0.00116200      -0.01126800      -0.00888900 
      46       0.00649535      -2.02437758       6.09804630       0.00179500      -0.00359700      -0.00141000 
      46      -6.10931210      -4.04727064       6.10203857       0.00215000      -0.00386200      -0.00168400 
      46      -6.10541379      -6.06983326      -0.00562193       0.00228200      -0.00230100      -0.00102300 
      46      -4.06844311      -2.02318434       2.02847030      -0.00684000      -0.01044600      -0.00077200 
      47      -4.06543533      -8.09451864       4.06272485      -0.00193100       0.00002000       0.00095200 
      47      -2.02846464      -4.04786971       6.09681709      -0.00125100      -0.00167700       0.00028600 
      47      -2.02456634      -6.07043234      -0.01084342      -0.00156700      -0.00799400       0.00841500 
      47       0.01240435      -2.02378341       2.02324882       0.00701700      -0.00754600       0.00065500 
      47      -6.10340309      -4.04667647       2.02724109      -0.00197500      -0.00053500       0.00052600 
      47      -4.07789921      -6.07142151       6.10957186      -0.00147200       0.00102300       0.00053100 
      47      -4.07499798       0.00050697       0.00051983      -0.00124400       0.00116900       0.00041500 
      47      -2.03703022      -4.04733520       2.03600359      -0.00103600       0.00022300       0.00026100 
      47       0.00093754      -8.09517738       4.07148735      -0.00099500       0.00145500       0.00045500 
      47      -6.11586697      -2.02357933       4.07408810      -0.00162500       0.00036400       0.00054000 
      47      -0.00237315      -0.00002048       0.00190976       0.00086700       0.00007300      -0.00051400 
      47      -6.11818059      -2.02291354       0.00590203       0.00086200      -0.00008000      -0.00109200 
      47      -4.08021283      -6.07075571       2.04138579       0.00956400      -0.00821200      -0.00108100 
      47      -2.04324214      -2.02410679       4.07547803       0.00134700      -0.00947800       0.00837200 
      47      -0.00527437      -6.07194896       6.11096179       0.00152700      -0.00108600      -0.00042000 
      47      -0.01384000      -6.07141445       2.05014832      -0.00660000      -0.00645500      -0.00083100 
      47      -6.13064452       0.00018359       2.05274907       0.00155400       0.00063900      -0.00083800 
      47      -4.09267675      -4.04765858       4.08823283       0.00137800       0.00074000      -0.00063400 
      47      -2.05470899      -8.09550075       6.12371659       0.00145900       0.00143400      -0.00037500 
      47      -2.05180776      -2.02357228       0.01466456       0.00118700      -0.00762300      -0.01025200 
30
Lattice="0.0009970754176303 -8.094491102076017 0.0013915218402412 2.034069461730663 -2.025279547965659 8.143144269039386 -8.153775207588204 2.0249491130569313 -2.0314914829843866" Properties=Z:I:1:pos:R:3:vasp_force:R:3 uuid=3f3da539-f80e-4219-8f05-11c6cec377f9 vasp_virial="-0.06615440804558001 -0.13363624513377492 -0.2010520253264843 -0.13363624513377492 -0.1677436221694948 -0.25547347050724506 -0.2010520253264843 -0.25547347050724506 0.10549286209046725" vasp_energy=-108.34859356 pbc="T T T"
      46      -2.04979701      -0.00041552       2.04752756      -0.00133600      -0.00248400      -0.00447300 
      46      -0.01182924      -4.04825769       4.08301132      -0.00236100       0.00226100       0.00125700 
      46      -6.12763668      -6.07115075       4.08700360      -0.00220100       0.00320600       0.00152200 
      46      -4.09066600      -2.02450182       6.12109583      -0.00212000       0.00346800       0.00143700 
      46      -4.08676769      -4.04706444       0.01343532      -0.00213200       0.00422100       0.00125800 
      46      -2.03283116      -6.06868087       4.05452283       0.01497000      -0.01686900       0.05626200 
      46       0.00649535      -2.02437758       6.09804630       0.00178200      -0.00386600      -0.00186900 
      46      -6.10931210      -4.04727064       6.10203857       0.00218600      -0.00311700      -0.00186900 
      46      -6.10541379      -6.06983326      -0.00562193       0.00217300      -0.00258000      -0.00130400 
      46      -4.06844311      -2.02318434       2.02847030       0.00148500      -0.00229700      -0.00081100 
      47      -4.06543533      -8.09451864       4.06272485      -0.00170100      -0.00129300       0.00173200 
      47      -2.02846464      -4.04786971       6.09681709      -0.00107000      -0.00760300      -0.00450000 
      47      -2.02456634      -6.07043234      -0.01084342      -0.00156800      -0.00111500       0.00004800 
      47       0.01240435      -2.02378341       2.02324882      -0.00112200      -0.00053300       0.00070600 
      47      -6.10340309      -4.04667647       2.02724109      -0.00171000      -0.00028400       0.00061000 
      47      -4.07789921      -6.07142151       6.10957186       0.00435900       0.00080300      -0.00389600 
      47      -4.07499798       0.00050697       0.00051983      -0.00130300       0.00064500       0.00055900 
      47      -2.03703022      -4.04733520       2.03600359      -0.00083700       0.01155700      -0.00969400 
      47       0.00093754      -8.09517738       4.07148735      -0.00480300       0.00492800       0.00138400 
      47      -6.11586697      -2.02357933       4.07408810      -0.00155000       0.00035500       0.00089700 
      47      -0.00237315      -0.00002048       0.00190976       0.00110200      -0.00085400      -0.00048900 
      47      -6.11818059      -2.02291354       0.00590203       0.00119700      -0.00043000      -0.00125900 
      47      -4.08021283      -6.07075571       2.04138579      -0.00862100      -0.00072800      -0.01021700 
      47      -2.04324214      -2.02410679       4.07547803       0.00155600      -0.00127500      -0.00026500 
      47      -0.00527437      -6.07194896       6.11096179      -0.00785600      -0.00153700      -0.00923000 
      47      -0.01384000      -6.07141445       2.05014832       0.00928600       0.00096600      -0.00678300 
      47      -6.13064452       0.00018359       2.05274907       0.00130000       0.00035400      -0.00073000 
      47      -4.09267675      -4.04765858       4.08823283      -0.00199700       0.00409300       0.00021600 
      47      -2.05470899      -8.09550075       6.12371659       0.00172500       0.00999900      -0.00884800 
      47      -2.05180776      -2.02357228       0.01466456       0.00117000       0.00001000      -0.00165100 
30
Lattice="0.0009970754176303 -8.094491102076017 0.0013915218402412 2.034069461730663 -2.025279547965659 8.143144269039386 -8.153775207588204 2.0249491130569313 -2.0314914829843866" Properties=Z:I:1:pos:R:3:vasp_force:R:3 uuid=eb082278-788e-49a3-88ea-6e3d01bf53c4 vasp_virial="-0.07361254610254687 -0.13103800724467554 -0.19342717224757763 -0.13103800724467554 -0.17126351102894055 -0.25230588509038904 -0.19342717224757763 -0.25230588509038904 0.09967356415483303" vasp_energy=-108.34857037 pbc="T T T"
      46      -2.04979701      -0.00041552       2.04752756      -0.00133000       0.00323600       0.00083100 
      46      -0.01182924      -4.04825769       4.08301132      -0.00755700      -0.00314400       0.00123000 
      46      -6.12763668      -6.07115075       4.08700360      -0.00234000       0.00332900       0.00129100 
      46      -4.09066600      -2.02450182       6.12109583      -0.00219300       0.00350800       0.00152900 
      46      -4.08676769      -4.04706444       0.01343532      -0.00190500       0.00418400       0.00139400 
      46      -2.03990868      -6.06868379       4.06160377       0.05949300      -0.01731000       0.01211700 
      46       0.00649535      -2.02437758       6.09804630       0.00145500      -0.00365900      -0.00144300 
      46      -6.10931210      -4.04727064       6.10203857       0.00187800      -0.00317000      -0.00156900 
      46      -6.10541379      -6.06983326      -0.00562193       0.00184200      -0.00254300      -0.00103500 
      46      -4.06844311      -2.02318434       2.02847030       0.00105100      -0.00254200      -0.00049700 
      47      -4.06543533      -8.09451864       4.06272485      -0.00732000      -0.00735800       0.00117400 
      47      -2.02846464      -4.04786971       6.09681709      -0.00048600      -0.00165500       0.00100900 
      47      -2.02456634      -6.07043234      -0.01084342      -0.00142300      -0.00118100       0.00038400 
      47       0.01240435      -2.02378341       2.02324882      -0.00116100      -0.00050800       0.00073100 
      47      -6.10340309      -4.04667647       2.02724109      -0.00205200      -0.00019300       0.00045100 
      47      -4.07789921      -6.07142151       6.10957186      -0.00588400       0.00080100       0.00639700 
      47      -4.07499798       0.00050697       0.00051983      -0.00107100       0.00067000       0.00041900 
      47      -2.03703022      -4.04733520       2.03600359      -0.00025300       0.00483600      -0.00383300 
      47       0.00093754      -8.09517738       4.07148735      -0.01024500       0.01116400       0.00078500 
      47      -6.11586697      -2.02357933       4.07408810      -0.00143100       0.00037000       0.00064200 
      47      -0.00237315      -0.00002048       0.00190976       0.00081200      -0.00091100      -0.00025000 
      47      -6.11818059      -2.02291354       0.00590203       0.00095300      -0.00034400      -0.00099000 
      47      -4.08021283      -6.07075571       2.04138579      -0.00835900      -0.00068600      -0.01074900 
      47      -2.04324214      -2.02410679       4.07547803       0.00172500      -0.00127300      -0.00047800 
      47      -0.00527437      -6.07194896       6.11096179      -0.00743900      -0.00154200      -0.00944900 
      47      -0.01384000      -6.07141445       2.05014832      -0.00407600       0.00099100       0.00646100 
      47      -6.13064452       0.00018359       2.05274907       0.00107000       0.00010500      -0.00094800 
      47      -4.09267675      -4.04765858       4.08823283      -0.00728100       0.00999300      -0.00029000 
      47      -2.05470899      -8.09550075       6.12371659       0.00218100       0.00451500      -0.00387400 
      47      -2.05180776      -2.02357228       0.01466456       0.00134900       0.00031700      -0.00144100 
30
Lattice="0.0009970754176303 -8.094491102076017 0.0013915218402412 2.034069461730663 -2.025279547965659 8.143144269039386 -8.153775207588204 2.0249491130569313 -2.0314914829843866" Properties=Z:I:1:pos:R:3:vasp_force:R:3 uuid=a5eeafb1-d3f1-458c-bf4c-2cf0a1ff8d09 vasp_virial="-0.0734898690109308 -0.13825708225131367 -0.201775505610374 -0.13825708225131367 -0.17406935630385173 -0.25041854521937257 -0.201775505610374 -0.25041854521937257 0.09769185729026571" vasp_energy=-108.34861351 pbc="T T T"
      46      -2.04979701      -0.00041552       2.04752756      -0.00117300       0.00382100       0.00082000 
      46      -0.01182924      -4.04825769       4.08301132       0.00291400       0.00849800       0.00137100 
      46      -6.12763668      -6.07115075       4.08700360      -0.00138600       0.00314400       0.00167700 
      46      -4.09066600      -2.02450182       6.12109583      -0.00186100       0.00325200       0.00174800 
      46      -4.08676769      -4.04706444       0.01343532      -0.00201100       0.00415200       0.00204400 
      46      -2.02104201      -6.07336923       4.06630435      -0.05537400       0.00978800      -0.01486100 
      46       0.00649535      -2.02437758       6.09804630       0.00194300      -0.00452900      -0.00165700 
      46      -6.10931210      -4.04727064       6.10203857       0.00240100      -0.00358300      -0.00169900 
      46      -6.10541379      -6.06983326      -0.00562193       0.00231900      -0.00303000      -0.00105900 
      46      -4.06844311      -2.02318434       2.02847030       0.00161900      -0.00297500      -0.00057800 
      47      -4.06543533      -8.09451864       4.06272485       0.00347300       0.00509300       0.00096100 
      47      -2.02846464      -4.04786971       6.09681709      -0.00189700      -0.00116300       0.00073800 
      47      -2.02456634      -6.07043234      -0.01084342      -0.00145100      -0.00121100       0.00096300 
      47       0.01240435      -2.02378341       2.02324882      -0.00092500      -0.00072100       0.00093600 
      47      -6.10340309      -4.04667647       2.02724109      -0.00080200      -0.00034100       0.00078300 
      47      -4.07789921      -6.07142151       6.10957186       0.00331600       0.00133000      -0.00494800 
      47      -4.07499798       0.00050697       0.00051983      -0.00128900       0.00078100       0.00055600 
      47      -2.03703022      -4.04733520       2.03600359      -0.00191700      -0.00316000       0.00416200 
      47       0.00093754      -8.09517738       4.07148735       0.00881900      -0.00960900       0.00030100 
      47      -6.11586697      -2.02357933       4.07408810      -0.00157200       0.00048300       0.00088100 
      47      -0.00237315      -0.00002048       0.00190976       0.00104000      -0.00060700      -0.00062500 
      47      -6.11818059      -2.02291354       0.00590203       0.00102800      -0.00020300      -0.00126200 
      47      -4.08021283      -6.07075571       2.04138579       0.01004000      -0.00016400       0.00835100 
      47      -2.04324214      -2.02410679       4.07547803       0.00111400      -0.00125200      -0.00069500 
      47      -0.00527437      -6.07194896       6.11096179       0.01072200      -0.00098700       0.00944900 
      47      -0.01384000      -6.07141445       2.05014832       0.00788600       0.00168800      -0.00819800 
      47      -6.13064452       0.00018359       2.05274907       0.00169400       0.00085800      -0.00079800 
      47      -4.09267675      -4.04765858       4.08823283       0.00964800      -0.00789900      -0.00095400 
      47      -2.05470899      -8.09550075       6.12371659       0.00058000      -0.00201900       0.00285100 
      47      -2.05180776      -2.02357228       0.01466456       0.00110200       0.00056500      -0.00125800 
30
Lattice="0.0009970754176303 -8.094491102076017 0.0013915218402412 2.034069461730663 -2.025279547965659 8.143144269039386 -8.153775207588204 2.0249491130569313 -2.0314914829843866" Properties=Z:I:1:pos:R:3:vasp_force:R:3 uuid=0f7bc49c-0063-445f-9fd0-c38e7022dd47 vasp_virial="-0.06744094472432291 -0.1382507911184103 -0.19776490838446387 -0.1382507911184103 -0.16884771599403942 -0.24788636422575874 -0.19776490838446387 -0.24788636422575874 0.10032469641033372" vasp_energy=-108.34860037 pbc="T T T"
      46      -2.04979701      -0.00041552       2.04752756      -0.00135600       0.00458400       0.00072800 
      46      -0.01182924      -4.04825769       4.08301132      -0.00281200       0.00231800       0.00119800 
      46      -6.12763668      -6.07115075       4.08700360       0.00581500      -0.00348000       0.00125100 
      46      -4.09066600      -2.02450182       6.12109583      -0.00223000      -0.00364000       0.00959700 
      46      -4.08676769      -4.04706444       0.01343532      -0.00203500       0.00388500       0.00119900 
      46      -2.03047534      -6.07102651       4.06395406      -0.00701500      -0.01159500      -0.00106100 
      46       0.00649535      -2.02437758       6.09804630       0.00183200      -0.00393900      -0.00158400 
      46      -6.10931210      -4.04727064       6.10203857       0.00222500      -0.00346900      -0.00161600 
      46      -6.10541379      -6.06983326      -0.00562193       0.00211700      -0.00262200      -0.00094900 
      46      -4.06844311      -2.02318434       2.02847030       0.00125700      -0.01081400      -0.00935600 
      47      -4.06643117      -0.01002754       4.06133505      -0.00155700       0.05934500       0.00157300 
      47      -2.02846464      -4.04786971       6.09681709      -0.00115700      -0.00182200       0.00100500 
      47      -2.02456634      -6.07043234      -0.01084342      -0.00128700      -0.00121000       0.00069400 
      47       0.01240435      -2.02378341       2.02324882      -0.00098000      -0.00063000       0.00095700 
      47      -6.10340309      -4.04667647       2.02724109      -0.00127700      -0.00069500       0.00062900 
      47      -4.07789921      -6.07142151       6.10957186      -0.00118100      -0.00654200      -0.00821600 
      47      -4.07499798       0.00050697       0.00051983      -0.00110900       0.00089700       0.00066200 
      47      -2.03703022      -4.04733520       2.03600359      -0.00107700       0.00051200       0.00016400 
      47       0.00093754      -8.09517738       4.07148735      -0.00070600       0.00117700       0.00057900 
      47      -6.11586697      -2.02357933       4.07408810      -0.01051400      -0.00736600       0.00078900 
      47      -0.00237315      -0.00002048       0.00190976       0.00099300       0.00036700      -0.00043000 
      47      -6.11818059      -2.02291354       0.00590203       0.00099200      -0.00051900      -0.00106400 
      47      -4.08021283      -6.07075571       2.04138579       0.00114600      -0.00907500       0.00867200 
      47      -2.04324214      -2.02410679       4.07547803       0.01140100      -0.01005900      -0.00052600 
      47      -0.00527437      -6.07194896       6.11096179       0.00158900      -0.00152300      -0.00028000 
      47      -0.01384000      -6.07141445       2.05014832       0.00177400       0.00131500      -0.00093300 
      47      -6.13064452       0.00018359       2.05274907       0.00140900       0.00176200      -0.00097000 
      47      -4.09267675      -4.04765858       4.08823283       0.00133900      -0.00015500      -0.00068000 
      47      -2.05470899      -8.09550075       6.12371659       0.00131400       0.00255600      -0.00056600 
      47      -2.05180776      -2.02357228       0.01466456       0.00109000       0.00043800      -0.00146800 
30
Lattice="0.0009970754176303 -8.094491102076017 0.0013915218402412 2.034069461730663 -2.025279547965659 8.143144269039386 -8.153775207588204 2.0249491130569313 -2.0314914829843866" Properties=Z:I:1:pos:R:3:vasp_force:R:3 uuid=bc3daad1-1858-48a1-8bba-ad33425390c8 vasp_virial="-0.07125966239667963 -0.13022015996723507 -0.1972647633186445 -0.13022015996723507 -0.16986373395793664 -0.2558981219782238 -0.1972647633186445 -0.2558981219782238 0.10463412244915474" vasp_energy=-108.34858176 pbc="T T T"
      46      -2.04979701      -0.00041552       2.04752756      -0.00115100       0.00244000       0.00090900 
      46      -0.01182924      -4.04825769       4.08301132      -0.00188700       0.00284600       0.00137400 
      46      -6.12763668      -6.07115075       4.08700360      -0.00983100       0.01015600       0.00168600 
      46      -4.09066600      -2.02450182       6.12109583      -0.00179400       0.01017000      -0.00604300 
      46      -4.08676769      -4.04706444       0.01343532      -0.00184800       0.00444200       0.00220700 
      46      -2.03047534      -6.07102651       4.06395406       0.01009700       0.00421300      -0.00084700 
      46       0.00649535      -2.02437758       6.09804630       0.00163100      -0.00426100      -0.00157000 
      46      -6.10931210      -4.04727064       6.10203857       0.00210500      -0.00329200      -0.00171000 
      46      -6.10541379      -6.06983326      -0.00562193       0.00210500      -0.00296600      -0.00119400 
      46      -4.06844311      -2.02318434       2.02847030       0.00146400       0.00505000       0.00789000 
      47      -4.06543656      -8.08451864       4.06272313      -0.00208300      -0.06105700       0.00090400 
      47      -2.02846464      -4.04786971       6.09681709      -0.00117300      -0.00097800       0.00072200 
      47      -2.02456634      -6.07043234      -0.01084342      -0.00153100      -0.00119200       0.00059600 
      47       0.01240435      -2.02378341       2.02324882      -0.00105500      -0.00061200       0.00066100 
      47      -6.10340309      -4.04667647       2.02724109      -0.00151900       0.00014900       0.00055900 
      47      -4.07789921      -6.07142151       6.10957186      -0.00126700       0.00889600       0.00978800 
      47      -4.07499798       0.00050697       0.00051983      -0.00121000       0.00054300       0.00027500 
      47      -2.03703022      -4.04733520       2.03600359      -0.00109100       0.00110800       0.00017500 
      47       0.00093754      -8.09517738       4.07148735      -0.00106300       0.00083200       0.00050000 
      47      -6.11586697      -2.02357933       4.07408810       0.00724500       0.00798900       0.00069800 
      47      -0.00237315      -0.00002048       0.00190976       0.00093400      -0.00189300      -0.00052200 
      47      -6.11818059      -2.02291354       0.00590203       0.00104100      -0.00004100      -0.00123300 
      47      -4.08021283      -6.07075571       2.04138579       0.00095800       0.00848200      -0.01101400 
      47      -2.04324214      -2.02410679       4.07547803      -0.00817500       0.00728200      -0.00069300 
      47      -0.00527437      -6.07194896       6.11096179       0.00137300      -0.00104500      -0.00020800 
      47      -0.01384000      -6.07141445       2.05014832       0.00198100       0.00133900      -0.00066300 
      47      -6.13064452       0.00018359       2.05274907       0.00142200      -0.00080600      -0.00077700 
      47      -4.09267675      -4.04765858       4.08823283       0.00143000       0.00180900      -0.00063000 
      47      -2.05470899      -8.09550075       6.12371659       0.00149400      -0.00003000      -0.00057200 
      47      -2.05180776      -2.02357228       0.01466456       0.00139900       0.00042900      -0.00126800 
30
Lattice="0.0009970754176303 -8.094491102076017 0.0013915218402412 2.034069461730663 -2.025279547965659 8.143144269039386 -8.153775207588204 2.0249491130569313 -2.0314914829843866" Properties=Z:I:1:pos:R:3:vasp_force:R:3 uuid=809c941e-2eac-4d24-9845-fc5ff8d61f21 vasp_virial="-0.07119045993474235 -0.13594823647577017 -0.19483953158438833 -0.13594823647577017 -0.17118801743409992 -0.2480404969818918 -0.19483953158438833 -0.2480404969818918 0.09636128268119908" vasp_energy=-108.34860143 pbc="T T T"
      46      -2.04979701      -0.00041552       2.04752756      -0.00846900       0.00383100       0.00670300 
      46      -0.01182924      -4.04825769       4.08301132      -0.00222300       0.00270700       0.00114200 
      46      -6.12763668      -6.07115075       4.08700360       0.00152300      -0.00007600       0.00062100 
      46      -4.09066600      -2.02450182       6.12109583      -0.00241600      -0.00591000       0.01028700 
      46      -4.08676769      -4.04706444       0.01343532      -0.00186800       0.00465800       0.00202200 
      46      -2.03047534      -6.07102651       4.06395406       0.00127100      -0.00362200      -0.00165700 
      46       0.00649535      -2.02437758       6.09804630       0.00206000      -0.00415900      -0.00159400 
      46      -6.10931210      -4.04727064       6.10203857       0.00227100      -0.00343000      -0.00153200 
      46      -6.10541379      -6.06983326      -0.00562193       0.00220000      -0.00294200      -0.00045100 
      46      -4.06844311      -2.02318434       2.02847030       0.00121100       0.00351500       0.00485100 
      47      -4.06307951      -8.09686428       4.07215608      -0.01628500       0.01325900      -0.05662100 
      47      -2.02846464      -4.04786971       6.09681709      -0.00108700      -0.00157400       0.00097600 
      47      -2.02456634      -6.07043234      -0.01084342      -0.00143900      -0.00136500       0.00075600 
      47       0.01240435      -2.02378341       2.02324882      -0.00112500      -0.00071100       0.00095700 
      47      -6.10340309      -4.04667647       2.02724109      -0.00133100      -0.00052000       0.00069500 
      47      -4.07789921      -6.07142151       6.10957186      -0.00167700       0.00792300       0.00599100 
      47      -4.07499798       0.00050697       0.00051983      -0.00104700       0.00066500       0.00129100 
      47      -2.03703022      -4.04733520       2.03600359      -0.00112600       0.00072800       0.00019900 
      47       0.00093754      -8.09517738       4.07148735      -0.00058000       0.00102600       0.00042000 
      47      -6.11586697      -2.02357933       4.07408810      -0.00182100       0.00071700      -0.00049400 
      47      -0.00237315      -0.00002048       0.00190976      -0.00514800      -0.00054000       0.00445700 
      47      -6.11818059      -2.02291354       0.00590203       0.00111100      -0.00048100      -0.00074500 
      47      -4.08021283      -6.07075571       2.04138579       0.00087900      -0.01166800       0.00950100 
      47      -2.04324214      -2.02410679       4.07547803       0.00591200      -0.00574600      -0.00175200 
      47      -0.00527437      -6.07194896       6.11096179       0.00166500      -0.00135100      -0.00035000 
      47      -0.01384000      -6.07141445       2.05014832       0.00165600       0.00146300      -0.00072700 
      47      -6.13064452       0.00018359       2.05274907       0.01157100       0.00084700       0.00818300 
      47      -4.09267675      -4.04765858       4.08823283       0.00132300       0.00061800      -0.00094700 
      47      -2.05470899      -8.09550075       6.12371659       0.01197000       0.00158800       0.00921800 
      47      -2.05180776      -2.02357228       0.01466456       0.00101900       0.00055100      -0.00140100 
30
Lattice="0.0009970754176303 -8.094491102076017 0.0013915218402412 2.034069461730663 -2.025279547965659 8.143144269039386 -8.153775207588204 2.0249491130569313 -2.0314914829843866" Properties=Z:I:1:pos:R:3:vasp_force:R:3 uuid=abec8cbd-2ee0-4cf4-8c85-eec1f4f76afc vasp_virial="-0.06768315334110338 -0.13267370179955654 -0.1995956280593499 -0.13267370179955654 -0.16687859139527889 -0.2559830522724196 -0.1995956280593499 -0.2559830522724196 0.10888692829184525" vasp_energy=-108.34857658 pbc="T T T"
      46      -2.04979701      -0.00041552       2.04752756       0.00619300       0.00316900      -0.00521300 
      46      -0.01182924      -4.04825769       4.08301132      -0.00246900       0.00244700       0.00141400 
      46      -6.12763668      -6.07115075       4.08700360      -0.00525400       0.00656400       0.00233300 
      46      -4.09066600      -2.02450182       6.12109583      -0.00161800       0.01222000      -0.00670200 
      46      -4.08676769      -4.04706444       0.01343532      -0.00200100       0.00366700       0.00137300 
      46      -2.03047534      -6.07102651       4.06395406       0.00145400      -0.00403500      -0.00026700 
      46       0.00649535      -2.02437758       6.09804630       0.00141700      -0.00404800      -0.00157800 
      46      -6.10931210      -4.04727064       6.10203857       0.00207100      -0.00333600      -0.00181200 
      46      -6.10541379      -6.06983326      -0.00562193       0.00203000      -0.00264900      -0.00171000 
      46      -4.06844311      -2.02318434       2.02847030       0.00153800      -0.00921500      -0.00608700 
      47      -4.06779115      -8.09217300       4.05329362       0.01226700      -0.01479900       0.05956300 
      47      -2.02846464      -4.04786971       6.09681709      -0.00123200      -0.00123200       0.00073100 
      47      -2.02456634      -6.07043234      -0.01084342      -0.00136300      -0.00104300       0.00051900 
      47       0.01240435      -2.02378341       2.02324882      -0.00089900      -0.00053700       0.00064600 
      47      -6.10340309      -4.04667647       2.02724109      -0.00145200      -0.00003100       0.00048000 
      47      -4.07789921      -6.07142151       6.10957186      -0.00077200      -0.00563400      -0.00467000 
      47      -4.07499798       0.00050697       0.00051983      -0.00125800       0.00076600      -0.00037400 
      47      -2.03703022      -4.04733520       2.03600359      -0.00102900       0.00088600       0.00012300 
      47       0.00093754      -8.09517738       4.07148735      -0.00117700       0.00097900       0.00064200 
      47      -6.11586697      -2.02357933       4.07408810      -0.00109200       0.00014800       0.00196200 
      47      -0.00237315      -0.00002048       0.00190976       0.00692100      -0.00097900      -0.00532600 