  30
   1   1
     6.637893266816345    -0.201341328104776     0.032922521635996
    -0.209571795446139     6.618678378735808     0.057100475710995
     0.029798822852861     0.040667756171280     6.924205293614644
   1   2
    -0.779950241461213    -0.779015554059858    -0.031839533970577
    -0.839337180447409    -0.780060968295383     0.004209161133983
     0.009589655289404    -0.034209786851539     0.007704228882762
   1   3
     0.006658292328215    -0.022661863171531     0.035858160860327
    -0.016192644024544     0.003755069322625    -0.037488399697252
    -0.040716557647135     0.040296411651714    -0.096274624683577
   1   4
     0.006602639232146    -0.016455667537505    -0.040562870060611
    -0.022377446314706     0.003768849999978     0.039557109435465
     0.036104511374387    -0.037172738280832    -0.096266343791303
   1   5
    -0.780025489571730    -0.839544963102282     0.009380094485443
    -0.778613701910370    -0.780033431325456    -0.035005277546144
    -0.031474966866864     0.004810555748333     0.007715811575921
   1   6
     0.028966247408155    -0.029074625054204    -0.012531264490196
    -0.002244916726883    -0.735393207549874    -0.925751685611501
     0.008446163780186    -0.944380604286410    -0.804749794614730
   1   7
    -0.064622578744792    -0.057862955363513    -0.001929801329929
    -0.056625352642566    -0.062267770940948     0.001022663994336
    -0.003050866005110     0.000669563736591    -0.012370704827723
   1   8
    -0.738665136411044    -0.000700692309905    -0.925756005851263
    -0.029859031082318     0.027669715298008    -0.012496280565494
    -0.942265617359501     0.003238021796857    -0.817510765468872
   1   9
    -0.026259566462784    -0.045782677537490     0.026084616647464
    -0.032383199618972    -0.776817414079893     0.896817602075470
     0.010715358984155     0.913144807664764    -0.826186246151688
   1  10
    -0.795221310445223    -0.036788363609039     0.912583387954554
    -0.052595114888084    -0.028266845258324     0.030982672694463
     0.925644884399482     0.014953798481042    -0.848410252076818
   1  11
    -0.030058062418273     0.020505452735613    -0.008879685517220
     0.008232226094173    -0.037892480615540    -0.013354581896256
    -0.038936032305164     0.006102259185944    -0.018776765125517
   1  12
    -0.005880609787166     0.011556883945569     0.000481729686629
     0.012672382523835    -0.009794369403601    -0.000181124198093
     0.006525635653943     0.008561571143954    -0.015576613268644
   1  13
    -0.038863179250635     0.007976401246609    -0.014008948372549
     0.023947205962891    -0.029801535118319    -0.007176050079476
     0.005669944926236    -0.036418257536084    -0.017551333374964
   1  14
    -0.023264203272739     0.037900122087159     0.013762516904236
     0.017971878004329    -0.039199720768478     0.006946879278052
     0.029761958274376    -0.001651843518659    -0.028530152150224
   1  15
    -0.038948961212356     0.016702061866811     0.007762310608745
     0.040839577526119    -0.024499898354749     0.014268277500376
    -0.000348003836571     0.029052265276136    -0.028804402211643
   1  16
    -1.090697447927142     1.262857046027284     0.002065622753712
     1.264387302014961    -1.095988707166941     0.000476600869309
     0.001192443210133     0.002659032030132     0.132659514269834
   1  17
    -0.001289633282768    -0.009878880170252     0.031284852899834
     0.005772308454998    -0.060321430296241     0.002194209356370
     0.033332678111412     0.002111057227566     0.005292403552889
   1  18
    -0.034200028578505     0.007813847319678    -0.018590258683170
     0.001343688339222     0.016307774393990    -0.019841413102245
    -0.025185933692794    -0.010778063159593    -0.048457495575006
   1  19
     0.014893502650814    -0.000522557451720    -0.017886797253546
     0.008041981197762    -0.036657545931452    -0.018905788864276
    -0.010536897305972    -0.025416834803360    -0.050563756826944
   1  20
    -0.056036868722060     0.005579339454139     0.000990624718685
    -0.008011534628244     0.003236948906181     0.030863246254551
    -0.000791948032101     0.030321455529562     0.011170381044959
   1  21
    -0.011021448027735    -0.004557524786618    -0.000268015311163
    -0.022731880020003     0.027550943858702     0.007988031685527
    -0.004683709024124     0.004386705530628     0.038749547524078
   1  22
     0.002996419467312    -0.007804210527434    -0.009317812234946
    -0.005977466081565    -0.000905293277413     0.001516687177706
    -0.003542460384017    -0.001570815071199    -0.009956725488934
   1  23
     0.001167130090136    -0.002514268095199     0.002926726761642
    -0.007010084088012     0.005358607827575    -0.008636890107295
     0.000129843676521    -0.002577558866322    -0.009390483483292
   1  24
     0.024752009195536    -0.024472914019769     0.007194151899396
    -0.004836084479703    -0.012487405798514     0.000140167464770
     0.004298702132045    -0.002703961439370     0.034881234313733
   1  25
    -0.674818512262868     0.783495375812820    -0.001839951884255
     0.783665367988325    -0.677810162180255    -0.004354648552628
     0.001170330625275     0.001673208365393     0.085733043293557
   1  26
    -0.851730514131193    -0.008620086946630    -0.950268227855428
    -0.027091882278583     0.107998606330481    -0.009653554121616
    -1.022711716539083     0.019313708156422    -0.880884520102397
   1  27
    -0.013892881300698    -0.000778773190779    -0.004364436353951
    -0.000987588689126    -0.014121961175875    -0.004688842116221
    -0.014271919616745    -0.014208466021113    -0.004730194859775
   1  28
     0.107895732424690    -0.025831098279264    -0.006802978418842
    -0.007235575445150    -0.848909902622139    -0.945156108951795
     0.018014523958249    -1.020434860848968    -0.872082576737689
   1  29
    -0.871599851630247    -0.016532314201210     0.945979460922529
    -0.027105645539511     0.093670555682522     0.016674268676404
     1.021923924651641    -0.001169298985130    -0.888615763931021
   1  30
     0.095221694166005    -0.023644309675443     0.015568406685977
    -0.016086092654946    -0.856766618755512     0.931932605224144
    -0.003804370685699     1.010728870272699    -0.872421597904992
   2   1
    -0.780025489571730    -0.839544963102282     0.009380094485443
    -0.778613701910370    -0.780033431325456    -0.035005277546144
    -0.031474966866864     0.004810555748333     0.007715811575921
   2   2
     6.637893266816343    -0.201341328104775     0.032922521635997
    -0.209571795446138     6.618678378735808     0.057100475710997
     0.029798822852862     0.040667756171281     6.924205293614644
   2   3
    -0.779950241461213    -0.779015554059858    -0.031839533970577
    -0.839337180447409    -0.780060968295384     0.004209161133983
     0.009589655289404    -0.034209786851540     0.007704228882762
   2   4
     0.006658292328215    -0.022661863171531     0.035858160860327
    -0.016192644024544     0.003755069322625    -0.037488399697252
    -0.040716557647135     0.040296411651714    -0.096274624683577
   2   5
     0.006602639232146    -0.016455667537505    -0.040562870060611
    -0.022377446314706     0.003768849999978     0.039557109435465
     0.036104511374387    -0.037172738280832    -0.096266343791303
   2   6
    -0.795221310445222    -0.036788363609039     0.912583387954553
    -0.052595114888084    -0.028266845258324     0.030982672694463
     0.925644884399482     0.014953798481042    -0.848410252076818
   2   7
     0.028966247408155    -0.029074625054204    -0.012531264490196
    -0.002244916726883    -0.735393207549874    -0.925751685611501
     0.008446163780185    -0.944380604286410    -0.804749794614730
   2   8
    -0.064622578744792    -0.057862955363513    -0.001929801329929
    -0.056625352642566    -0.062267770940948     0.001022663994336
    -0.003050866005110     0.000669563736591    -0.012370704827723
   2   9
    -0.738665136411044    -0.000700692309905    -0.925756005851263
    -0.029859031082318     0.027669715298008    -0.012496280565494
    -0.942265617359502     0.003238021796857    -0.817510765468873
   2  10
    -0.026259566462784    -0.045782677537490     0.026084616647463
    -0.032383199618972    -0.776817414079893     0.896817602075470
     0.010715358984155     0.913144807664764    -0.826186246151687
   2  11
    -0.038948961212356     0.016702061866811     0.007762310608745
     0.040839577526119    -0.024499898354749     0.014268277500376
    -0.000348003836571     0.029052265276136    -0.028804402211643
   2  12
    -0.030058062418273     0.020505452735613    -0.008879685517220
     0.008232226094173    -0.037892480615540    -0.013354581896256
    -0.038936032305164     0.006102259185944    -0.018776765125517
   2  13
    -0.005880609787166     0.011556883945569     0.000481729686629
     0.012672382523835    -0.009794369403601    -0.000181124198093
     0.006525635653943     0.008561571143954    -0.015576613268644
   2  14
    -0.038863179250635     0.007976401246609    -0.014008948372549
     0.023947205962891    -0.029801535118319    -0.007176050079476
     0.005669944926236    -0.036418257536084    -0.017551333374964
   2  15
    -0.023264203272739     0.037900122087159     0.013762516904236
     0.017971878004329    -0.039199720768478     0.006946879278052
     0.029761958274376    -0.001651843518659    -0.028530152150224
   2  16
    -0.056036868722060     0.005579339454139     0.000990624718685
    -0.008011534628244     0.003236948906181     0.030863246254551
    -0.000791948032101     0.030321455529562     0.011170381044959
   2  17
    -1.090697447927142     1.262857046027284     0.002065622753712
     1.264387302014961    -1.095988707166941     0.000476600869309
     0.001192443210133     0.002659032030132     0.132659514269834
   2  18
    -0.001289633282768    -0.009878880170252     0.031284852899834
     0.005772308454998    -0.060321430296241     0.002194209356370
     0.033332678111412     0.002111057227566     0.005292403552889
   2  19
    -0.034200028578505     0.007813847319678    -0.018590258683170
     0.001343688339222     0.016307774393990    -0.019841413102245
    -0.025185933692794    -0.010778063159593    -0.048457495575006
   2  20
     0.014893502650814    -0.000522557451720    -0.017886797253546
     0.008041981197762    -0.036657545931452    -0.018905788864276
    -0.010536897305972    -0.025416834803360    -0.050563756826944
   2  21
    -0.674818512262868     0.783495375812819    -0.001839951884255
     0.783665367988325    -0.677810162180255    -0.004354648552628
     0.001170330625275     0.001673208365393     0.085733043293557
   2  22
    -0.011021448027735    -0.004557524786618    -0.000268015311163
    -0.022731880020003     0.027550943858702     0.007988031685527
    -0.004683709024124     0.004386705530628     0.038749547524078
   2  23
     0.002996419467312    -0.007804210527434    -0.009317812234946
    -0.005977466081565    -0.000905293277413     0.001516687177706
    -0.003542460384017    -0.001570815071199    -0.009956725488934
   2  24
     0.001167130090136    -0.002514268095199     0.002926726761642
    -0.007010084088012     0.005358607827575    -0.008636890107295
     0.000129843676521    -0.002577558866322    -0.009390483483292
   2  25
     0.024752009195536    -0.024472914019769     0.007194151899396
    -0.004836084479703    -0.012487405798514     0.000140167464770
     0.004298702132045    -0.002703961439370     0.034881234313733
   2  26
     0.095221694166004    -0.023644309675443     0.015568406685977
    -0.016086092654946    -0.856766618755512     0.931932605224144
    -0.003804370685699     1.010728870272699    -0.872421597904992
   2  27
    -0.851730514131193    -0.008620086946630    -0.950268227855428
    -0.027091882278583     0.107998606330481    -0.009653554121616
    -1.022711716539083     0.019313708156422    -0.880884520102397
   2  28
    -0.013892881300698    -0.000778773190779    -0.004364436353951
    -0.000987588689126    -0.014121961175875    -0.004688842116221
    -0.014271919616745    -0.014208466021113    -0.004730194859775
   2  29
     0.107895732424690    -0.025831098279264    -0.006802978418842
    -0.007235575445150    -0.848909902622139    -0.945156108951795
     0.018014523958249    -1.020434860848968    -0.872082576737689
   2  30
    -0.871599851630247    -0.016532314201210     0.945979460922529
    -0.027105645539511     0.093670555682522     0.016674268676404
     1.021923924651641    -0.001169298985130    -0.888615763931020
   3   1
     0.006602639232146    -0.016455667537505    -0.040562870060611
    -0.022377446314706     0.003768849999978     0.039557109435465
     0.036104511374387    -0.037172738280832    -0.096266343791303
   3   2
    -0.780025489571730    -0.839544963102282     0.009380094485443
    -0.778613701910370    -0.780033431325456    -0.035005277546144
    -0.031474966866864     0.004810555748333     0.007715811575921
   3   3
     6.637893266816343    -0.201341328104775     0.032922521635997
    -0.209571795446138     6.618678378735808     0.057100475710997
     0.029798822852862     0.040667756171281     6.924205293614644
   3   4
    -0.779950241461213    -0.779015554059858    -0.031839533970577
    -0.839337180447409    -0.780060968295384     0.004209161133983
     0.009589655289404    -0.034209786851540     0.007704228882762
   3   5
     0.006658292328215    -0.022661863171531     0.035858160860327
    -0.016192644024544     0.003755069322625    -0.037488399697252
    -0.040716557647135     0.040296411651714    -0.096274624683577
   3   6
    -0.026259566462784    -0.045782677537490     0.026084616647463
    -0.032383199618972    -0.776817414079893     0.896817602075470
     0.010715358984155     0.913144807664764    -0.826186246151687
   3   7
    -0.795221310445222    -0.036788363609039     0.912583387954553
    -0.052595114888084    -0.028266845258324     0.030982672694463
     0.925644884399482     0.014953798481042    -0.848410252076818
   3   8
     0.028966247408155    -0.029074625054204    -0.012531264490196
    -0.002244916726883    -0.735393207549874    -0.925751685611501
     0.008446163780185    -0.944380604286410    -0.804749794614730
   3   9
    -0.064622578744792    -0.057862955363513    -0.001929801329929
    -0.056625352642566    -0.062267770940948     0.001022663994336
    -0.003050866005110     0.000669563736591    -0.012370704827723
   3  10
    -0.738665136411044    -0.000700692309905    -0.925756005851263
    -0.029859031082318     0.027669715298008    -0.012496280565494
    -0.942265617359502     0.003238021796857    -0.817510765468873
   3  11
    -0.023264203272739     0.037900122087159     0.013762516904236
     0.017971878004329    -0.039199720768478     0.006946879278052
     0.029761958274376    -0.001651843518659    -0.028530152150224
   3  12
    -0.038948961212356     0.016702061866811     0.007762310608745
     0.040839577526119    -0.024499898354749     0.014268277500376
    -0.000348003836571     0.029052265276136    -0.028804402211643
   3  13
    -0.030058062418273     0.020505452735613    -0.008879685517220
     0.008232226094173    -0.037892480615540    -0.013354581896256
    -0.038936032305164     0.006102259185944    -0.018776765125517
   3  14
    -0.005880609787166     0.011556883945569     0.000481729686629
     0.012672382523835    -0.009794369403601    -0.000181124198093
     0.006525635653943     0.008561571143954    -0.015576613268644
   3  15
    -0.038863179250635     0.007976401246609    -0.014008948372549
     0.023947205962891    -0.029801535118319    -0.007176050079476
     0.005669944926236    -0.036418257536084    -0.017551333374964
   3  16
     0.014893502650814    -0.000522557451720    -0.017886797253546
     0.008041981197762    -0.036657545931452    -0.018905788864276
    -0.010536897305972    -0.025416834803360    -0.050563756826944
   3  17
    -0.056036868722060     0.005579339454139     0.000990624718685
    -0.008011534628244     0.003236948906181     0.030863246254551
    -0.000791948032101     0.030321455529562     0.011170381044959
   3  18
    -1.090697447927142     1.262857046027284     0.002065622753712
     1.264387302014961    -1.095988707166941     0.000476600869309
     0.001192443210133     0.002659032030132     0.132659514269834
   3  19
    -0.001289633282768    -0.009878880170252     0.031284852899834
     0.005772308454998    -0.060321430296241     0.002194209356370
     0.033332678111412     0.002111057227566     0.005292403552889
   3  20
    -0.034200028578505     0.007813847319678    -0.018590258683170
     0.001343688339222     0.016307774393990    -0.019841413102245
    -0.025185933692794    -0.010778063159593    -0.048457495575006
   3  21
     0.024752009195536    -0.024472914019769     0.007194151899396
    -0.004836084479703    -0.012487405798514     0.000140167464770
     0.004298702132045    -0.002703961439370     0.034881234313733
   3  22
    -0.674818512262868     0.783495375812819    -0.001839951884255
     0.783665367988325    -0.677810162180255    -0.004354648552628
     0.001170330625275     0.001673208365393     0.085733043293557
   3  23
    -0.011021448027735    -0.004557524786618    -0.000268015311163
    -0.022731880020003     0.027550943858702     0.007988031685527
    -0.004683709024124     0.004386705530628     0.038749547524078
   3  24
     0.002996419467312    -0.007804210527434    -0.009317812234946
    -0.005977466081565    -0.000905293277413     0.001516687177706
    -0.003542460384017    -0.001570815071199    -0.009956725488934
   3  25
     0.001167130090136    -0.002514268095199     0.002926726761642
    -0.007010084088012     0.005358607827575    -0.008636890107295
     0.000129843676521    -0.002577558866322    -0.009390483483292
   3  26
    -0.871599851630247    -0.016532314201210     0.945979460922529
    -0.027105645539511     0.093670555682522     0.016674268676404
     1.021923924651641    -0.001169298985130    -0.888615763931020
   3  27
     0.095221694166004    -0.023644309675443     0.015568406685977
    -0.016086092654946    -0.856766618755512     0.931932605224144
    -0.003804370685699     1.010728870272699    -0.872421597904992
   3  28
    -0.851730514131193    -0.008620086946630    -0.950268227855428
    -0.027091882278583     0.107998606330481    -0.009653554121616
    -1.022711716539083     0.019313708156422    -0.880884520102397
   3  29
    -0.013892881300698    -0.000778773190779    -0.004364436353951
    -0.000987588689126    -0.014121961175875    -0.004688842116221
    -0.014271919616745    -0.014208466021113    -0.004730194859775
   3  30
     0.107895732424690    -0.025831098279264    -0.006802978418842
    -0.007235575445150    -0.848909902622139    -0.945156108951795
     0.018014523958249    -1.020434860848968    -0.872082576737689
   4   1
     0.006658292328215    -0.022661863171531     0.035858160860327
    -0.016192644024544     0.003755069322625    -0.037488399697252
    -0.040716557647135     0.040296411651714    -0.096274624683577
   4   2
     0.006602639232146    -0.016455667537505    -0.040562870060611
    -0.022377446314706     0.003768849999978     0.039557109435465
     0.036104511374387    -0.037172738280832    -0.096266343791303
   4   3
    -0.780025489571730    -0.839544963102282     0.009380094485443
    -0.778613701910370    -0.780033431325456    -0.035005277546144
    -0.031474966866864     0.004810555748333     0.007715811575921
   4   4
     6.637893266816343    -0.201341328104775     0.032922521635997
    -0.209571795446138     6.618678378735808     0.057100475710997
     0.029798822852862     0.040667756171281     6.924205293614644
   4   5
    -0.779950241461213    -0.779015554059858    -0.031839533970577
    -0.839337180447409    -0.780060968295384     0.004209161133983
     0.009589655289404    -0.034209786851540     0.007704228882762
   4   6
    -0.738665136411044    -0.000700692309905    -0.925756005851263
    -0.029859031082318     0.027669715298008    -0.012496280565494
    -0.942265617359502     0.003238021796857    -0.817510765468873
   4   7
    -0.026259566462784    -0.045782677537490     0.026084616647463
    -0.032383199618972    -0.776817414079893     0.896817602075470
     0.010715358984155     0.913144807664764    -0.826186246151687
   4   8
    -0.795221310445222    -0.036788363609039     0.912583387954553
    -0.052595114888084    -0.028266845258324     0.030982672694463
     0.925644884399482     0.014953798481042    -0.848410252076818
   4   9
     0.028966247408155    -0.029074625054204    -0.012531264490196
    -0.002244916726883    -0.735393207549874    -0.925751685611501
     0.008446163780185    -0.944380604286410    -0.804749794614730
   4  10
    -0.064622578744792    -0.057862955363513    -0.001929801329929
    -0.056625352642566    -0.062267770940948     0.001022663994336
    -0.003050866005110     0.000669563736591    -0.012370704827723
   4  11
    -0.038863179250635     0.007976401246609    -0.014008948372549
     0.023947205962891    -0.029801535118319    -0.007176050079476
     0.005669944926236    -0.036418257536084    -0.017551333374964
   4  12
    -0.023264203272739     0.037900122087159     0.013762516904236
     0.017971878004329    -0.039199720768478     0.006946879278052
     0.029761958274376    -0.001651843518659    -0.028530152150224
   4  13
    -0.038948961212356     0.016702061866811     0.007762310608745
     0.040839577526119    -0.024499898354749     0.014268277500376
    -0.000348003836571     0.029052265276136    -0.028804402211643
   4  14
    -0.030058062418273     0.020505452735613    -0.008879685517220
     0.008232226094173    -0.037892480615540    -0.013354581896256
    -0.038936032305164     0.006102259185944    -0.018776765125517
   4  15
    -0.005880609787166     0.011556883945569     0.000481729686629
     0.012672382523835    -0.009794369403601    -0.000181124198093
     0.006525635653943     0.008561571143954    -0.015576613268644
   4  16
    -0.034200028578505     0.007813847319678    -0.018590258683170
     0.001343688339222     0.016307774393990    -0.019841413102245
    -0.025185933692794    -0.010778063159593    -0.048457495575006
   4  17
     0.014893502650814    -0.000522557451720    -0.017886797253546
     0.008041981197762    -0.036657545931452    -0.018905788864276
    -0.010536897305972    -0.025416834803360    -0.050563756826944
   4  18
    -0.056036868722060     0.005579339454139     0.000990624718685
    -0.008011534628244     0.003236948906181     0.030863246254551
    -0.000791948032101     0.030321455529562     0.011170381044959
   4  19
    -1.090697447927142     1.262857046027284     0.002065622753712
     1.264387302014961    -1.095988707166941     0.000476600869309
     0.001192443210133     0.002659032030132     0.132659514269834
   4  20
    -0.001289633282768    -0.009878880170252     0.031284852899834
     0.005772308454998    -0.060321430296241     0.002194209356370
     0.033332678111412     0.002111057227566     0.005292403552889
   4  21
     0.001167130090136    -0.002514268095199     0.002926726761642
    -0.007010084088012     0.005358607827575    -0.008636890107295
     0.000129843676521    -0.002577558866322    -0.009390483483292
   4  22
     0.024752009195536    -0.024472914019769     0.007194151899396
    -0.004836084479703    -0.012487405798514     0.000140167464770
     0.004298702132045    -0.002703961439370     0.034881234313733
   4  23
    -0.674818512262868     0.783495375812819    -0.001839951884255
     0.783665367988325    -0.677810162180255    -0.004354648552628
     0.001170330625275     0.001673208365393     0.085733043293557
   4  24
    -0.011021448027735    -0.004557524786618    -0.000268015311163
    -0.022731880020003     0.027550943858702     0.007988031685527
    -0.004683709024124     0.004386705530628     0.038749547524078
   4  25
     0.002996419467312    -0.007804210527434    -0.009317812234946
    -0.005977466081565    -0.000905293277413     0.001516687177706
    -0.003542460384017    -0.001570815071199    -0.009956725488934
   4  26
     0.107895732424690    -0.025831098279264    -0.006802978418842
    -0.007235575445150    -0.848909902622139    -0.945156108951795
     0.018014523958249    -1.020434860848968    -0.872082576737689
   4  27
    -0.871599851630247    -0.016532314201210     0.945979460922529
    -0.027105645539511     0.093670555682522     0.016674268676404
     1.021923924651641    -0.001169298985130    -0.888615763931020
   4  28
     0.095221694166004    -0.023644309675443     0.015568406685977
    -0.016086092654946    -0.856766618755512     0.931932605224144
    -0.003804370685699     1.010728870272699    -0.872421597904992
   4  29
    -0.851730514131193    -0.008620086946630    -0.950268227855428
    -0.027091882278583     0.107998606330481    -0.009653554121616
    -1.022711716539083     0.019313708156422    -0.880884520102397
   4  30
    -0.013892881300698    -0.000778773190779    -0.004364436353951
    -0.000987588689126    -0.014121961175875    -0.004688842116221
    -0.014271919616745    -0.014208466021113    -0.004730194859775
   5   1
    -0.779950241461213    -0.779015554059858    -0.031839533970577
    -0.839337180447409    -0.780060968295384     0.004209161133983
     0.009589655289404    -0.034209786851540     0.007704228882762
   5   2
     0.006658292328215    -0.022661863171531     0.035858160860327
    -0.016192644024544     0.003755069322625    -0.037488399697252
    -0.040716557647135     0.040296411651714    -0.096274624683577
   5   3
     0.006602639232146    -0.016455667537505    -0.040562870060611
    -0.022377446314706     0.003768849999978     0.039557109435465
     0.036104511374387    -0.037172738280832    -0.096266343791303
   5   4
    -0.780025489571730    -0.839544963102282     0.009380094485443
    -0.778613701910370    -0.780033431325456    -0.035005277546144
    -0.031474966866864     0.004810555748333     0.007715811575921
   5   5
     6.637893266816343    -0.201341328104775     0.032922521635997
    -0.209571795446138     6.618678378735808     0.057100475710997
     0.029798822852862     0.040667756171281     6.924205293614644
   5   6
    -0.064622578744792    -0.057862955363513    -0.001929801329929
    -0.056625352642566    -0.062267770940948     0.001022663994336
    -0.003050866005110     0.000669563736591    -0.012370704827723
   5   7
    -0.738665136411044    -0.000700692309905    -0.925756005851263
    -0.029859031082318     0.027669715298008    -0.012496280565494
    -0.942265617359502     0.003238021796857    -0.817510765468873
   5   8
    -0.026259566462784    -0.045782677537490     0.026084616647463
    -0.032383199618972    -0.776817414079893     0.896817602075470
     0.010715358984155     0.913144807664764    -0.826186246151687
   5   9
    -0.795221310445222    -0.036788363609039     0.912583387954553
    -0.052595114888084    -0.028266845258324     0.030982672694463
     0.925644884399482     0.014953798481042    -0.848410252076818
   5  10
     0.028966247408155    -0.029074625054204    -0.012531264490196
    -0.002244916726883    -0.735393207549874    -0.925751685611501
     0.008446163780185    -0.944380604286410    -0.804749794614730
   5  11
    -0.005880609787166     0.011556883945569     0.000481729686629
     0.012672382523835    -0.009794369403601    -0.000181124198093
     0.006525635653943     0.008561571143954    -0.015576613268644
   5  12
    -0.038863179250635     0.007976401246609    -0.014008948372549
     0.023947205962891    -0.029801535118319    -0.007176050079476
     0.005669944926236    -0.036418257536084    -0.017551333374964
   5  13
    -0.023264203272739     0.037900122087159     0.013762516904236
     0.017971878004329    -0.039199720768478     0.006946879278052
     0.029761958274376    -0.001651843518659    -0.028530152150224
   5  14
    -0.038948961212356     0.016702061866811     0.007762310608745
     0.040839577526119    -0.024499898354749     0.014268277500376
    -0.000348003836571     0.029052265276136    -0.028804402211643
   5  15
    -0.030058062418273     0.020505452735613    -0.008879685517220
     0.008232226094173    -0.037892480615540    -0.013354581896256
    -0.038936032305164     0.006102259185944    -0.018776765125517
   5  16
    -0.001289633282768    -0.009878880170252     0.031284852899834
     0.005772308454998    -0.060321430296241     0.002194209356370
     0.033332678111412     0.002111057227566     0.005292403552889
   5  17
    -0.034200028578505     0.007813847319678    -0.018590258683170
     0.001343688339222     0.016307774393990    -0.019841413102245
    -0.025185933692794    -0.010778063159593    -0.048457495575006
   5  18
     0.014893502650814    -0.000522557451720    -0.017886797253546
     0.008041981197762    -0.036657545931452    -0.018905788864276
    -0.010536897305972    -0.025416834803360    -0.050563756826944
   5  19
    -0.056036868722060     0.005579339454139     0.000990624718685
    -0.008011534628244     0.003236948906181     0.030863246254551
    -0.000791948032101     0.030321455529562     0.011170381044959
   5  20
    -1.090697447927142     1.262857046027284     0.002065622753712
     1.264387302014961    -1.095988707166941     0.000476600869309
     0.001192443210133     0.002659032030132     0.132659514269834
   5  21
     0.002996419467312    -0.007804210527434    -0.009317812234946
    -0.005977466081565    -0.000905293277413     0.001516687177706
    -0.003542460384017    -0.001570815071199    -0.009956725488934
   5  22
     0.001167130090136    -0.002514268095199     0.002926726761642
    -0.007010084088012     0.005358607827575    -0.008636890107295
     0.000129843676521    -0.002577558866322    -0.009390483483292
   5  23
     0.024752009195536    -0.024472914019769     0.007194151899396
    -0.004836084479703    -0.012487405798514     0.000140167464770