  30
   1   1
     6.911199865477114     0.121507670647657    -0.080606118157978
     0.148236999460447     6.761837691529176     0.024268545880059
    -0.051203153448006     0.047465206782135     6.651481975654427
   1   2
     0.025120028708319     0.009703727229220     0.050419903988436
    -0.017668439181997    -0.007795935900706     0.007045157039683
    -0.016534294870472    -0.043473798270319    -0.129683562110505
   1   3
    -0.022940417373304     0.019939254381866    -0.033781722041928
    -0.014607556105068    -0.034723581316520    -0.013853839587755
    -0.016800138021936     0.041022315972438    -0.024032120788100
   1   4
    -0.022882458718902    -0.013603318323221    -0.015759933849911
     0.019019178767914    -0.034848778500447     0.041709890721758
    -0.034807579714170    -0.014598181681820    -0.024283613062713
   1   5
     0.025139944313890    -0.016857407763561    -0.015644954822603
     0.008789091915528    -0.007822344387933    -0.042486546400325
     0.049455849945670     0.006249530338210    -0.129669025410693
   1   6
    -0.847713402920848    -0.949921174269918     0.008421391800466
    -0.935026125492666    -0.948745888845984    -0.006769939190141
     0.009684545729728     0.002919261414919    -0.031414417725541
   1   7
    -0.012520860828162     0.041456125373117     0.010730090261237
     0.021892011144794    -0.017854583919131     0.021565974702307
     0.020494030596192     0.005692743425185    -0.008249009319515
   1   8
    -0.016456281090630     0.008856511433385    -0.015563730547327
     0.028704903272334    -0.007932694139404     0.004310249780259
    -0.006747431073244    -0.009860937030419     0.027136036768738
   1   9
    -0.008674994350216    -0.046517140901057     0.064858811742754
    -0.032694999431329    -0.738544416129166     0.812821122840526
     0.024854047432105     0.775447981917222    -0.725084633978442
   1  10
    -0.017767959452681    -0.043325794481779    -0.047931271842586
    -0.035761137804907    -0.762657273459745    -0.828560898438223
    -0.032925060176644    -0.775145135507669    -0.755991243220876
   1  11
    -0.861943212396866    -0.039062663744826    -1.138964779073460
    -0.040073468515477     0.068851736782261    -0.049613740166431
    -1.140087528830321    -0.050183397118322    -0.969365201769709
   1  12
    -0.935340453039986    -0.040920949116489     1.143993697710776
    -0.041944729133311     0.090008476738498     0.010116771119077
     1.142618844459479     0.009324218011607    -0.969387917063421
   1  13
    -0.036796469153810    -0.040407050744043    -0.003409640615665
    -0.041258375779336     0.028966127426602    -0.008855129767913
    -0.004371589880346    -0.009703224910573     0.043328541321397
   1  14
     0.022842142510247    -0.013991857405893     0.019390009031427
    -0.014927307948479     0.001066745002490     0.011489520645102
     0.018558064273683     0.010807296567379    -0.012837650249281
   1  15
    -0.006335410060258     0.007927351634729     0.008801566083438
     0.006837571528769    -0.064830207623090     0.021449386510747
     0.007616787790388     0.020616262504224     0.031724977715357
   1  16
    -0.054553776506272    -0.009544121924941     0.010602782126512
    -0.010864810634210    -0.017387309689294    -0.018189756386904
     0.010463436397616    -0.014179269706543    -0.034123935980287
   1  17
    -0.046116103121276    -0.009928293208014     0.025354604454648
    -0.017608011890397    -0.033720173426827     0.005185628703620
     0.012357527383798     0.011029422995406    -0.042097663000036
   1  18
    -0.729925399182855     0.753909158595955    -0.000019362504597
     0.759552319415805    -0.696086902655392    -0.007220647024453
    -0.005515377878477    -0.000174949416646     0.073651805886816
   1  19
    -0.004918104562049    -0.005323961400213    -0.032936477985498
     0.007681570411931    -0.013460227408816     0.028212261286865
    -0.018648656610374     0.010941902838120    -0.039074640146943
   1  20
    -1.053013623225736     1.227615215429655     0.003394713020599
     1.228532009435056    -1.111856863887089    -0.012351854198047
     0.003741409950128    -0.017430982819729     0.125774670567088
   1  21
    -0.057391975452216     0.007243165619901    -0.003057517778480
    -0.013800633071375     0.024103954706980     0.003697977437078
     0.001435286316225     0.000621931179663     0.036099396382679
   1  22
    -0.791540969892448     0.003592169735755     0.859898155790901
    -0.001524666832453     0.081752318659055     0.007276005419970
     0.922636496811968    -0.009565689428414    -0.790391608219430
   1  23
    -0.751372324963242    -0.002087110006672    -0.815730215791474
    -0.001175992252040     0.075330581346283    -0.009971841985516
    -0.873713254705353    -0.000665100601752    -0.741649843107613
   1  24
     0.009730450587473     0.008976449683409     0.009805418216856
     0.023089583259066    -0.057534942517511     0.006363667326653
     0.007129933536689     0.008542734532187     0.021068386395601
   1  25
    -0.020141073033088     0.018191299143127    -0.028312587183890
     0.003524692990934    -0.006260265002662    -0.005376647533168
    -0.039421162296562    -0.002528944957858    -0.022479233516845
   1  26
    -0.015855925614927     0.011493807518219     0.003991426465645
     0.010076291889578    -0.010809719879886    -0.002003682797211
    -0.008212496952869    -0.003066767049005     0.003454527970567
   1  27
    -0.012050680039413     0.009788713986721     0.021664549784212
     0.009658004675384    -0.002051420710960     0.003799271383880
     0.015233163945958     0.011353601342898    -0.008660785945396
   1  28
    -0.885651153137998    -0.987260832078988     0.000455480411241
    -1.051215070551164    -0.895098104417652    -0.004197833232525
     0.003368819292227    -0.001969781339473     0.132781549574872
   1  29
     0.108279047451796    -0.016141485596482    -0.033841546161118
     0.000448544752898    -0.833432339727421    -0.917039073294938
     0.002954613960867    -0.986171214605295    -0.852448181840527
   1  30
     0.109591894859404    -0.015307503310037     0.023777589703371
    -0.005891450352429    -0.828464388645495     0.917179458066709
    -0.003613381443634     0.976682218342114    -0.835577955280046
   2   1
     0.025139944313890    -0.016857407763561    -0.015644954822603
     0.008789091915528    -0.007822344387933    -0.042486546400325
     0.049455849945670     0.006249530338210    -0.129669025410693
   2   2
     6.911199865477112     0.121507670647657    -0.080606118157978
     0.148236999460448     6.761837691529176     0.024268545880059
    -0.051203153448006     0.047465206782136     6.651481975654427
   2   3
     0.025120028708319     0.009703727229220     0.050419903988436
    -0.017668439181997    -0.007795935900706     0.007045157039683
    -0.016534294870472    -0.043473798270319    -0.129683562110505
   2   4
    -0.022940417373304     0.019939254381866    -0.033781722041928
    -0.014607556105068    -0.034723581316520    -0.013853839587755
    -0.016800138021936     0.041022315972438    -0.024032120788100
   2   5
    -0.022882458718902    -0.013603318323221    -0.015759933849911
     0.019019178767914    -0.034848778500447     0.041709890721758
    -0.034807579714170    -0.014598181681820    -0.024283613062713
   2   6
    -0.017767959452681    -0.043325794481779    -0.047931271842586
    -0.035761137804907    -0.762657273459745    -0.828560898438223
    -0.032925060176644    -0.775145135507669    -0.755991243220876
   2   7
    -0.847713402920847    -0.949921174269918     0.008421391800466
    -0.935026125492666    -0.948745888845984    -0.006769939190141
     0.009684545729728     0.002919261414919    -0.031414417725541
   2   8
    -0.012520860828162     0.041456125373117     0.010730090261237
     0.021892011144794    -0.017854583919131     0.021565974702307
     0.020494030596192     0.005692743425185    -0.008249009319515
   2   9
    -0.016456281090630     0.008856511433385    -0.015563730547327
     0.028704903272334    -0.007932694139404     0.004310249780259
    -0.006747431073244    -0.009860937030419     0.027136036768738
   2  10
    -0.008674994350216    -0.046517140901057     0.064858811742754
    -0.032694999431329    -0.738544416129166     0.812821122840526
     0.024854047432105     0.775447981917222    -0.725084633978442
   2  11
    -0.006335410060258     0.007927351634729     0.008801566083438
     0.006837571528769    -0.064830207623090     0.021449386510747
     0.007616787790388     0.020616262504224     0.031724977715357
   2  12
    -0.861943212396866    -0.039062663744826    -1.138964779073459
    -0.040073468515477     0.068851736782261    -0.049613740166431
    -1.140087528830321    -0.050183397118323    -0.969365201769709
   2  13
    -0.935340453039986    -0.040920949116489     1.143993697710776
    -0.041944729133310     0.090008476738498     0.010116771119077
     1.142618844459478     0.009324218011607    -0.969387917063421
   2  14
    -0.036796469153810    -0.040407050744043    -0.003409640615665
    -0.041258375779336     0.028966127426602    -0.008855129767913
    -0.004371589880346    -0.009703224910573     0.043328541321397
   2  15
     0.022842142510247    -0.013991857405893     0.019390009031427
    -0.014927307948479     0.001066745002490     0.011489520645102
     0.018558064273683     0.010807296567379    -0.012837650249281
   2  16
    -1.053013623225735     1.227615215429655     0.003394713020599
     1.228532009435056    -1.111856863887089    -0.012351854198047
     0.003741409950128    -0.017430982819729     0.125774670567088
   2  17
    -0.054553776506272    -0.009544121924941     0.010602782126512
    -0.010864810634210    -0.017387309689294    -0.018189756386904
     0.010463436397615    -0.014179269706543    -0.034123935980287
   2  18
    -0.046116103121276    -0.009928293208014     0.025354604454648
    -0.017608011890397    -0.033720173426827     0.005185628703620
     0.012357527383798     0.011029422995406    -0.042097663000036
   2  19
    -0.729925399182855     0.753909158595955    -0.000019362504597
     0.759552319415805    -0.696086902655392    -0.007220647024453
    -0.005515377878477    -0.000174949416646     0.073651805886816
   2  20
    -0.004918104562049    -0.005323961400213    -0.032936477985498
     0.007681570411931    -0.013460227408816     0.028212261286865
    -0.018648656610374     0.010941902838120    -0.039074640146943
   2  21
    -0.020141073033088     0.018191299143127    -0.028312587183890
     0.003524692990934    -0.006260265002662    -0.005376647533168
    -0.039421162296562    -0.002528944957858    -0.022479233516845
   2  22
    -0.057391975452216     0.007243165619901    -0.003057517778480
    -0.013800633071375     0.024103954706980     0.003697977437078
     0.001435286316225     0.000621931179663     0.036099396382679
   2  23
    -0.791540969892448     0.003592169735755     0.859898155790901
    -0.001524666832453     0.081752318659055     0.007276005419970
     0.922636496811968    -0.009565689428414    -0.790391608219430
   2  24
    -0.751372324963242    -0.002087110006672    -0.815730215791474
    -0.001175992252041     0.075330581346283    -0.009971841985516
    -0.873713254705353    -0.000665100601752    -0.741649843107613
   2  25
     0.009730450587473     0.008976449683409     0.009805418216856
     0.023089583259066    -0.057534942517511     0.006363667326653
     0.007129933536689     0.008542734532187     0.021068386395601
   2  26
     0.109591894859404    -0.015307503310037     0.023777589703371
    -0.005891450352429    -0.828464388645495     0.917179458066709
    -0.003613381443634     0.976682218342114    -0.835577955280046
   2  27
    -0.015855925614927     0.011493807518219     0.003991426465645
     0.010076291889578    -0.010809719879886    -0.002003682797211
    -0.008212496952869    -0.003066767049005     0.003454527970567
   2  28
    -0.012050680039413     0.009788713986721     0.021664549784212
     0.009658004675384    -0.002051420710960     0.003799271383880
     0.015233163945958     0.011353601342898    -0.008660785945396
   2  29
    -0.885651153137998    -0.987260832078988     0.000455480411241
    -1.051215070551164    -0.895098104417652    -0.004197833232525
     0.003368819292227    -0.001969781339473     0.132781549574872
   2  30
     0.108279047451796    -0.016141485596482    -0.033841546161118
     0.000448544752898    -0.833432339727421    -0.917039073294938
     0.002954613960867    -0.986171214605295    -0.852448181840527
   3   1
    -0.022882458718902    -0.013603318323221    -0.015759933849911
     0.019019178767914    -0.034848778500447     0.041709890721758
    -0.034807579714170    -0.014598181681820    -0.024283613062713
   3   2
     0.025139944313890    -0.016857407763561    -0.015644954822603
     0.008789091915528    -0.007822344387933    -0.042486546400325
     0.049455849945670     0.006249530338210    -0.129669025410693
   3   3
     6.911199865477112     0.121507670647657    -0.080606118157978
     0.148236999460448     6.761837691529176     0.024268545880059
    -0.051203153448006     0.047465206782136     6.651481975654427
   3   4
     0.025120028708319     0.009703727229220     0.050419903988436
    -0.017668439181997    -0.007795935900706     0.007045157039683
    -0.016534294870472    -0.043473798270319    -0.129683562110505
   3   5
    -0.022940417373304     0.019939254381866    -0.033781722041928
    -0.014607556105068    -0.034723581316520    -0.013853839587755
    -0.016800138021936     0.041022315972438    -0.024032120788100
   3   6
    -0.008674994350216    -0.046517140901057     0.064858811742754
    -0.032694999431329    -0.738544416129166     0.812821122840526
     0.024854047432105     0.775447981917222    -0.725084633978442
   3   7
    -0.017767959452681    -0.043325794481779    -0.047931271842586
    -0.035761137804907    -0.762657273459745    -0.828560898438223
    -0.032925060176644    -0.775145135507669    -0.755991243220876
   3   8
    -0.847713402920847    -0.949921174269918     0.008421391800466
    -0.935026125492666    -0.948745888845984    -0.006769939190141
     0.009684545729728     0.002919261414919    -0.031414417725541
   3   9
    -0.012520860828162     0.041456125373117     0.010730090261237
     0.021892011144794    -0.017854583919131     0.021565974702307
     0.020494030596192     0.005692743425185    -0.008249009319515
   3  10
    -0.016456281090630     0.008856511433385    -0.015563730547327
     0.028704903272334    -0.007932694139404     0.004310249780259
    -0.006747431073244    -0.009860937030419     0.027136036768738
   3  11
     0.022842142510247    -0.013991857405893     0.019390009031427
    -0.014927307948479     0.001066745002490     0.011489520645102
     0.018558064273683     0.010807296567379    -0.012837650249281
   3  12
    -0.006335410060258     0.007927351634729     0.008801566083438
     0.006837571528769    -0.064830207623090     0.021449386510747
     0.007616787790388     0.020616262504224     0.031724977715357
   3  13
    -0.861943212396866    -0.039062663744826    -1.138964779073459
    -0.040073468515477     0.068851736782261    -0.049613740166431
    -1.140087528830321    -0.050183397118323    -0.969365201769709
   3  14
    -0.935340453039986    -0.040920949116489     1.143993697710776
    -0.041944729133310     0.090008476738498     0.010116771119077
     1.142618844459478     0.009324218011607    -0.969387917063421
   3  15
    -0.036796469153810    -0.040407050744043    -0.003409640615665
    -0.041258375779336     0.028966127426602    -0.008855129767913
    -0.004371589880346    -0.009703224910573     0.043328541321397
   3  16
    -0.004918104562049    -0.005323961400213    -0.032936477985498
     0.007681570411931    -0.013460227408816     0.028212261286865
    -0.018648656610374     0.010941902838120    -0.039074640146943
   3  17
    -1.053013623225735     1.227615215429655     0.003394713020599
     1.228532009435056    -1.111856863887089    -0.012351854198047
     0.003741409950128    -0.017430982819729     0.125774670567088
   3  18
    -0.054553776506272    -0.009544121924941     0.010602782126512
    -0.010864810634210    -0.017387309689294    -0.018189756386904
     0.010463436397615    -0.014179269706543    -0.034123935980287
   3  19
    -0.046116103121276    -0.009928293208014     0.025354604454648
    -0.017608011890397    -0.033720173426827     0.005185628703620
     0.012357527383798     0.011029422995406    -0.042097663000036
   3  20
    -0.729925399182855     0.753909158595955    -0.000019362504597
     0.759552319415805    -0.696086902655392    -0.007220647024453
    -0.005515377878477    -0.000174949416646     0.073651805886816
   3  21
     0.009730450587473     0.008976449683409     0.009805418216856
     0.023089583259066    -0.057534942517511     0.006363667326653
     0.007129933536689     0.008542734532187     0.021068386395601
   3  22
    -0.020141073033088     0.018191299143127    -0.028312587183890
     0.003524692990934    -0.006260265002662    -0.005376647533168
    -0.039421162296562    -0.002528944957858    -0.022479233516845
   3  23
    -0.057391975452216     0.007243165619901    -0.003057517778480
    -0.013800633071375     0.024103954706980     0.003697977437078
     0.001435286316225     0.000621931179663     0.036099396382679
   3  24
    -0.791540969892448     0.003592169735755     0.859898155790901
    -0.001524666832453     0.081752318659055     0.007276005419970
     0.922636496811968    -0.009565689428414    -0.790391608219430
   3  25
    -0.751372324963242    -0.002087110006672    -0.815730215791474
    -0.001175992252041     0.075330581346283    -0.009971841985516
    -0.873713254705353    -0.000665100601752    -0.741649843107613
   3  26
     0.108279047451796    -0.016141485596482    -0.033841546161118
     0.000448544752898    -0.833432339727421    -0.917039073294938
     0.002954613960867    -0.986171214605295    -0.852448181840527
   3  27
     0.109591894859404    -0.015307503310037     0.023777589703371
    -0.005891450352429    -0.828464388645495     0.917179458066709
    -0.003613381443634     0.976682218342114    -0.835577955280046
   3  28
    -0.015855925614927     0.011493807518219     0.003991426465645
     0.010076291889578    -0.010809719879886    -0.002003682797211
    -0.008212496952869    -0.003066767049005     0.003454527970567
   3  29
    -0.012050680039413     0.009788713986721     0.021664549784212
     0.009658004675384    -0.002051420710960     0.003799271383880
     0.015233163945958     0.011353601342898    -0.008660785945396
   3  30
    -0.885651153137998    -0.987260832078988     0.000455480411241
    -1.051215070551164    -0.895098104417652    -0.004197833232525
     0.003368819292227    -0.001969781339473     0.132781549574872
   4   1
    -0.022940417373304     0.019939254381866    -0.033781722041928
    -0.014607556105068    -0.034723581316520    -0.013853839587755
    -0.016800138021936     0.041022315972438    -0.024032120788100
   4   2
    -0.022882458718902    -0.013603318323221    -0.015759933849911
     0.019019178767914    -0.034848778500447     0.041709890721758
    -0.034807579714170    -0.014598181681820    -0.024283613062713
   4   3
     0.025139944313890    -0.016857407763561    -0.015644954822603
     0.008789091915528    -0.007822344387933    -0.042486546400325
     0.049455849945670     0.006249530338210    -0.129669025410693
   4   4
     6.911199865477112     0.121507670647657    -0.080606118157978
     0.148236999460448     6.761837691529176     0.024268545880059
    -0.051203153448006     0.047465206782136     6.651481975654427
   4   5
     0.025120028708319     0.009703727229220     0.050419903988436
    -0.017668439181997    -0.007795935900706     0.007045157039683
    -0.016534294870472    -0.043473798270319    -0.129683562110505
   4   6
    -0.016456281090630     0.008856511433385    -0.015563730547327
     0.028704903272334    -0.007932694139404     0.004310249780259
    -0.006747431073244    -0.009860937030419     0.027136036768738
   4   7
    -0.008674994350216    -0.046517140901057     0.064858811742754
    -0.032694999431329    -0.738544416129166     0.812821122840526
     0.024854047432105     0.775447981917222    -0.725084633978442
   4   8
    -0.017767959452681    -0.043325794481779    -0.047931271842586
    -0.035761137804907    -0.762657273459745    -0.828560898438223
    -0.032925060176644    -0.775145135507669    -0.755991243220876
   4   9
    -0.847713402920847    -0.949921174269918     0.008421391800466
    -0.935026125492666    -0.948745888845984    -0.006769939190141
     0.009684545729728     0.002919261414919    -0.031414417725541
   4  10
    -0.012520860828162     0.041456125373117     0.010730090261237
     0.021892011144794    -0.017854583919131     0.021565974702307
     0.020494030596192     0.005692743425185    -0.008249009319515
   4  11
    -0.036796469153810    -0.040407050744043    -0.003409640615665
    -0.041258375779336     0.028966127426602    -0.008855129767913
    -0.004371589880346    -0.009703224910573     0.043328541321397
   4  12
     0.022842142510247    -0.013991857405893     0.019390009031427
    -0.014927307948479     0.001066745002490     0.011489520645102
     0.018558064273683     0.010807296567379    -0.012837650249281
   4  13
    -0.006335410060258     0.007927351634729     0.008801566083438
     0.006837571528769    -0.064830207623090     0.021449386510747
     0.007616787790388     0.020616262504224     0.031724977715357
   4  14
    -0.861943212396866    -0.039062663744826    -1.138964779073459
    -0.040073468515477     0.068851736782261    -0.049613740166431
    -1.140087528830321    -0.050183397118323    -0.969365201769709
   4  15
    -0.935340453039986    -0.040920949116489     1.143993697710776
    -0.041944729133310     0.090008476738498     0.010116771119077
     1.142618844459478     0.009324218011607    -0.969387917063421
   4  16
    -0.729925399182855     0.753909158595955    -0.000019362504597
     0.759552319415805    -0.696086902655392    -0.007220647024453
    -0.005515377878477    -0.000174949416646     0.073651805886816
   4  17
    -0.004918104562049    -0.005323961400213    -0.032936477985498
     0.007681570411931    -0.013460227408816     0.028212261286865
    -0.018648656610374     0.010941902838120    -0.039074640146943
   4  18
    -1.053013623225735     1.227615215429655     0.003394713020599
     1.228532009435056    -1.111856863887089    -0.012351854198047
     0.003741409950128    -0.017430982819729     0.125774670567088
   4  19
    -0.054553776506272    -0.009544121924941     0.010602782126512
    -0.010864810634210    -0.017387309689294    -0.018189756386904
     0.010463436397615    -0.014179269706543    -0.034123935980287
   4  20
    -0.046116103121276    -0.009928293208014     0.025354604454648
    -0.017608011890397    -0.033720173426827     0.005185628703620
     0.012357527383798     0.011029422995406    -0.042097663000036
   4  21
    -0.751372324963242    -0.002087110006672    -0.815730215791474
    -0.001175992252041     0.075330581346283    -0.009971841985516
    -0.873713254705353    -0.000665100601752    -0.741649843107613
   4  22
     0.009730450587473     0.008976449683409     0.009805418216856
     0.023089583259066    -0.057534942517511     0.006363667326653
     0.007129933536689     0.008542734532187     0.021068386395601
   4  23
    -0.020141073033088     0.018191299143127    -0.028312587183890
     0.003524692990934    -0.006260265002662    -0.005376647533168
    -0.039421162296562    -0.002528944957858    -0.022479233516845
   4  24
    -0.057391975452216     0.007243165619901    -0.003057517778480
    -0.013800633071375     0.024103954706980     0.003697977437078
     0.001435286316225     0.000621931179663     0.036099396382679
   4  25
    -0.791540969892448     0.003592169735755     0.859898155790901
    -0.001524666832453     0.081752318659055     0.007276005419970
     0.922636496811968    -0.009565689428414    -0.790391608219430
   4  26
    -0.885651153137998    -0.987260832078988     0.000455480411241
    -1.051215070551164    -0.895098104417652    -0.004197833232525
     0.003368819292227    -0.001969781339473     0.132781549574872
   4  27
     0.108279047451796    -0.016141485596482    -0.033841546161118
     0.000448544752898    -0.833432339727421    -0.917039073294938
     0.002954613960867    -0.986171214605295    -0.852448181840527
   4  28
     0.109591894859404    -0.015307503310037     0.023777589703371
    -0.005891450352429    -0.828464388645495     0.917179458066709
    -0.003613381443634     0.976682218342114    -0.835577955280046
   4  29
    -0.015855925614927     0.011493807518219     0.003991426465645
     0.010076291889578    -0.010809719879886    -0.002003682797211
    -0.008212496952869    -0.003066767049005     0.003454527970567
   4  30
    -0.012050680039413     0.009788713986721     0.021664549784212
     0.009658004675384    -0.002051420710960     0.003799271383880
     0.015233163945958     0.011353601342898    -0.008660785945396
   5   1
     0.025120028708319     0.009703727229220     0.050419903988436
    -0.017668439181997    -0.007795935900706     0.007045157039683
    -0.016534294870472    -0.043473798270319    -0.129683562110505
   5   2
    -0.022940417373304     0.019939254381866    -0.033781722041928
    -0.014607556105068    -0.034723581316520    -0.013853839587755
    -0.016800138021936     0.041022315972438    -0.024032120788100
   5   3
    -0.022882458718902    -0.013603318323221    -0.015759933849911
     0.019019178767914    -0.034848778500447     0.041709890721758
    -0.034807579714170    -0.014598181681820    -0.024283613062713
   5   4
     0.025139944313890    -0.016857407763561    -0.015644954822603
     0.008789091915528    -0.007822344387933    -0.042486546400325
     0.049455849945670     0.006249530338210    -0.129669025410693
   5   5
     6.911199865477112     0.121507670647657    -0.080606118157978
     0.148236999460448     6.761837691529176     0.024268545880059
    -0.051203153448006     0.047465206782136     6.651481975654427
   5   6
    -0.012520860828162     0.041456125373117     0.010730090261237
     0.021892011144794    -0.017854583919131     0.021565974702307
     0.020494030596192     0.005692743425185    -0.008249009319515
   5   7
    -0.016456281090630     0.008856511433385    -0.015563730547327
     0.028704903272334    -0.007932694139404     0.004310249780259
    -0.006747431073244    -0.009860937030419     0.027136036768738
   5   8
    -0.008674994350216    -0.046517140901057     0.064858811742754
    -0.032694999431329    -0.738544416129166     0.812821122840526
     0.024854047432105     0.775447981917222    -0.725084633978442
   5   9
    -0.017767959452681    -0.043325794481779    -0.047931271842586
    -0.035761137804907    -0.762657273459745    -0.828560898438223
    -0.032925060176644    -0.775145135507669    -0.755991243220876
   5  10
    -0.847713402920847    -0.949921174269918     0.008421391800466
    -0.935026125492666    -0.948745888845984    -0.006769939190141
     0.009684545729728     0.002919261414919    -0.031414417725541
   5  11
    -0.935340453039986    -0.040920949116489     1.143993697710776
    -0.041944729133310     0.090008476738498     0.010116771119077
     1.142618844459478     0.009324218011607    -0.969387917063421
   5  12
    -0.036796469153810    -0.040407050744043    -0.003409640615665
    -0.041258375779336     0.028966127426602    -0.008855129767913
    -0.004371589880346    -0.009703224910573     0.043328541321397
   5  13
     0.022842142510247    -0.013991857405893     0.019390009031427
    -0.014927307948479     0.001066745002490     0.011489520645102
     0.018558064273683     0.010807296567379    -0.012837650249281
   5  14
    -0.006335410060258     0.007927351634729     0.008801566083438
     0.006837571528769    -0.064830207623090     0.021449386510747
     0.007616787790388     0.020616262504224     0.031724977715357
   5  15
    -0.861943212396866    -0.039062663744826    -1.138964779073459
    -0.040073468515477     0.068851736782261    -0.049613740166431
    -1.140087528830321    -0.050183397118323    -0.969365201769709
   5  16
    -0.046116103121276    -0.009928293208014     0.025354604454648
    -0.017608011890397    -0.033720173426827     0.005185628703620
     0.012357527383798     0.011029422995406    -0.042097663000036
   5  17
    -0.729925399182855     0.753909158595955    -0.000019362504597
     0.759552319415805    -0.696086902655392    -0.007220647024453
    -0.005515377878477    -0.000174949416646     0.073651805886816
   5  18
    -0.004918104562049    -0.005323961400213    -0.032936477985498
     0.007681570411931    -0.013460227408816     0.028212261286865
    -0.018648656610374     0.010941902838120    -0.039074640146943
   5  19
    -1.053013623225735     1.227615215429655     0.003394713020599
     1.228532009435056    -1.111856863887089    -0.012351854198047
     0.003741409950128    -0.017430982819729     0.125774670567088
   5  20
    -0.054553776506272    -0.009544121924941     0.010602782126512
    -0.010864810634210    -0.017387309689294    -0.018189756386904
     0.010463436397615    -0.014179269706543    -0.034123935980287
   5  21
    -0.791540969892448     0.003592169735755     0.859898155790901
    -0.001524666832453     0.081752318659055     0.007276005419970
     0.922636496811968    -0.009565689428414    -0.790391608219430
   5  22
    -0.751372324963242    -0.002087110006672    -0.815730215791474
    -0.001175992252041     0.075330581346283    -0.009971841985516
    -0.873713254705353    -0.000665100601752    -0.741649843107613
   5  23
     0.009730450587473     0.008976449683409     0.009805418216856
     0.023089583259066    -0.057534942517511     0.006363667326653