  30
   1   1
     7.462503543040667     0.226947781014793     0.038533050774272
     0.205375254579327     7.526746303969617    -0.075089630441225
    -0.002511208835602    -0.058932363646422     7.297744097875022
   1   2
    -1.023887147962283    -1.087932753015820    -0.043751307982542
    -1.212972497718023    -1.018261366712475     0.039288407716123
    -0.038781410386714     0.044799483901454     0.040801633300368
   1   3
    -0.883753366898706    -0.100037489490627    -1.125767450689626
     0.011950815235122    -0.904612707296452     1.019619387597084
    -0.995519330774120     1.144595608961482    -1.892873894998976
   1   4
    -0.883793555272214     0.011091912086373    -0.996681740258929
    -0.098952282255359    -0.904642238968036     1.144669828618080
    -1.125013803687349     1.019714781710263    -1.893002655431158
   1   5
    -1.023944924654372    -1.214088707971543    -0.039766942388771
    -1.087212337064822    -1.018363841168423     0.044595012038980
    -0.042684958688999     0.039258331844280     0.040854802367752
   1   6
    -0.018396423207585    -0.067958587670381     0.011605303137542
    -0.023621218951820    -0.091039649543052    -0.043925217167519
    -0.013472072706375     0.013052930654496    -0.031088462899042
   1   7
    -1.065379622177396     0.000741338153580     1.161870776181214
    -0.004729145014769     0.119823178491999     0.031329506296369
     1.176821502427742     0.005155004153961    -1.003628985148215
   1   8
     0.123047574514384    -0.004276728493831    -0.032368650781135
     0.000835806056311    -1.077049994546073    -1.172423167061945
    -0.006448657168309    -1.186091339223315    -1.023188009062443
   1   9
    -0.089969679044549    -0.025766615019377     0.045610202556702
    -0.067122333436848    -0.018015664622388    -0.011445865919342
    -0.011766137650096     0.015187661627202    -0.030376935359003
   1  10
    -1.016506382020374     1.227169596851933    -0.060628917894823
     1.228175546785550    -1.011820879291288     0.062157438230990
    -0.011518311922096     0.015114873600687     0.034688604659932
   1  11
    -0.028787710247980     0.027288742716823     0.036049367491323
     0.017568925569963    -0.080868872194958    -0.008734467675098
     0.060774784461485    -0.034096651236716    -0.002652541359125
   1  12
     0.090669624073141     0.006853174752972    -0.045621153924548
    -0.042545693397081     0.028416898798264     0.021775234411411
    -0.056457166169593     0.030327870422439     0.070695785073374
   1  13
     0.075130352176121     0.007643561218551     0.039258588100518
     0.006288217702784     0.073663602097740    -0.038820245097499
     0.009712174554974    -0.008381598344404    -0.039352655664191
   1  14
     0.028747673218348    -0.043814928482476    -0.021682355242491
     0.009557843412809     0.089976774284093     0.046609532112033
    -0.028598934311389     0.057165793809802     0.071990068191141
   1  15
    -0.081228659511139     0.017633279951424     0.009218923507216
     0.028205807446564    -0.031949948516239    -0.033375490759691
     0.037139438504822    -0.058777076748983    -0.004173913240271
   1  16
     0.004751098232494     0.003178225015005    -0.000898678603975
     0.010572990699675     0.004546417723858     0.012813166749771
    -0.009014362987056     0.006666859350343     0.021839041211926
   1  17
     0.028622951271651    -0.010168284364803     0.011098681770721
    -0.009311363620332     0.028405107905424    -0.009915094195258
     0.019431161694735    -0.017644744909117    -0.011253236433950
   1  18
     0.004180650845590     0.009500125019375    -0.012932366434783
     0.003883873328273     0.003509294256028     0.002573603862613
    -0.005799099770840     0.011017220863620     0.020880979325900
   1  19
    -0.026137427218765     0.005760348140996     0.000393065169048
    -0.005820744097325     0.000240778567504    -0.011275528718071
    -0.000058758134838    -0.010313970961269    -0.002359249618998
   1  20
     0.002229901297231    -0.006841401006907     0.010414145187535
     0.006182736832508    -0.027190545279323     0.000689558265563
     0.011142100817397     0.002180371418695    -0.003613976393463
   1  21
     0.003318606263183    -0.002732634770164     0.003226376484865
    -0.002059443458728     0.016000649257784    -0.002897858926715
     0.005283200713260    -0.004066937208475     0.006518063779681
   1  22
    -0.014347910374419     0.007461401402035     0.007629300287520
     0.008151158992662    -0.012858612437044     0.001420308178743
     0.009730046090840     0.000123709406677     0.002428167941755
   1  23
    -0.013337086584705     0.007764506548140    -0.000490973646375
     0.008244200114892    -0.015374231069283    -0.006163542307974
     0.001450284668562    -0.007364567570632     0.003492097645191
   1  24
     0.017183686620496    -0.002590214275584     0.003264228631260
    -0.001829727424802     0.001917413060026    -0.003453464041724
     0.005139318728128    -0.004921937093100     0.005315485491543
   1  25
     0.006762113182748     0.008852853910059     0.010243207342615
     0.009289487445582     0.005441697044751    -0.009082479743795
     0.011703466862647    -0.009887659954161    -0.014360261931135
   1  26
    -0.870011338426072     0.030767898973159     0.956836011387591
     0.006352348374838     0.096330323849257    -0.005555377755053
     0.957483130216810    -0.016486898548354    -0.855012096311707
   1  27
     0.009921660994246    -0.019904445630910    -0.003152614855000
     0.005317122256225    -0.072919979430918    -0.020241883426337
     0.008541387202032     0.000284504543595     0.010002893602372
   1  28
    -0.842391910191406     0.977188385697380     0.010890633793799
     0.977888013507185    -0.838286391299833    -0.010160262121883
     0.013756546540424    -0.011920512255205     0.039043462913862
   1  29
    -0.073345893992621     0.004337163865752     0.020982426181164
    -0.019058523459428     0.008302957410439     0.003792288125364
     0.001522476627596    -0.007202548417576     0.009769177865476
   1  30
     0.098149403022475     0.005931497325991     0.006619696889359
     0.031393876051879    -0.880066726886132    -0.968772284257505
     0.018010815147418    -0.968555215055598    -0.869127199138391
   2   1
    -1.023944924654372    -1.214088707971544    -0.039766942388771
    -1.087212337064822    -1.018363841168424     0.044595012038980
    -0.042684958688999     0.039258331844280     0.040854802367752
   2   2
     7.462503543040667     0.226947781014793     0.038533050774271
     0.205375254579327     7.526746303969620    -0.075089630441225
    -0.002511208835602    -0.058932363646422     7.297744097875022
   2   3
    -1.023887147962283    -1.087932753015820    -0.043751307982542
    -1.212972497718023    -1.018261366712475     0.039288407716123
    -0.038781410386714     0.044799483901454     0.040801633300368
   2   4
    -0.883753366898706    -0.100037489490628    -1.125767450689626
     0.011950815235122    -0.904612707296453     1.019619387597085
    -0.995519330774120     1.144595608961482    -1.892873894998976
   2   5
    -0.883793555272214     0.011091912086373    -0.996681740258929
    -0.098952282255359    -0.904642238968037     1.144669828618080
    -1.125013803687349     1.019714781710263    -1.893002655431158
   2   6
    -1.016506382020374     1.227169596851933    -0.060628917894823
     1.228175546785550    -1.011820879291288     0.062157438230990
    -0.011518311922096     0.015114873600687     0.034688604659932
   2   7
    -0.018396423207585    -0.067958587670381     0.011605303137542
    -0.023621218951820    -0.091039649543052    -0.043925217167519
    -0.013472072706375     0.013052930654496    -0.031088462899042
   2   8
    -1.065379622177396     0.000741338153580     1.161870776181214
    -0.004729145014769     0.119823178491999     0.031329506296369
     1.176821502427742     0.005155004153961    -1.003628985148215
   2   9
     0.123047574514384    -0.004276728493831    -0.032368650781135
     0.000835806056312    -1.077049994546073    -1.172423167061945
    -0.006448657168309    -1.186091339223316    -1.023188009062443
   2  10
    -0.089969679044549    -0.025766615019377     0.045610202556702
    -0.067122333436848    -0.018015664622388    -0.011445865919342
    -0.011766137650096     0.015187661627202    -0.030376935359003
   2  11
    -0.081228659511139     0.017633279951424     0.009218923507216
     0.028205807446564    -0.031949948516239    -0.033375490759691
     0.037139438504822    -0.058777076748983    -0.004173913240271
   2  12
    -0.028787710247980     0.027288742716823     0.036049367491323
     0.017568925569963    -0.080868872194958    -0.008734467675098
     0.060774784461485    -0.034096651236716    -0.002652541359125
   2  13
     0.090669624073141     0.006853174752972    -0.045621153924548
    -0.042545693397081     0.028416898798264     0.021775234411411
    -0.056457166169593     0.030327870422439     0.070695785073374
   2  14
     0.075130352176121     0.007643561218551     0.039258588100518
     0.006288217702784     0.073663602097740    -0.038820245097499
     0.009712174554974    -0.008381598344404    -0.039352655664191
   2  15
     0.028747673218348    -0.043814928482476    -0.021682355242491
     0.009557843412809     0.089976774284093     0.046609532112033
    -0.028598934311389     0.057165793809802     0.071990068191141
   2  16
     0.002229901297231    -0.006841401006907     0.010414145187535
     0.006182736832508    -0.027190545279323     0.000689558265563
     0.011142100817397     0.002180371418695    -0.003613976393463
   2  17
     0.004751098232494     0.003178225015005    -0.000898678603975
     0.010572990699675     0.004546417723858     0.012813166749771
    -0.009014362987056     0.006666859350343     0.021839041211926
   2  18
     0.028622951271651    -0.010168284364803     0.011098681770721
    -0.009311363620332     0.028405107905424    -0.009915094195258
     0.019431161694735    -0.017644744909117    -0.011253236433950
   2  19
     0.004180650845590     0.009500125019375    -0.012932366434783
     0.003883873328273     0.003509294256028     0.002573603862613
    -0.005799099770840     0.011017220863620     0.020880979325900
   2  20
    -0.026137427218765     0.005760348140996     0.000393065169048
    -0.005820744097325     0.000240778567504    -0.011275528718071
    -0.000058758134838    -0.010313970961269    -0.002359249618998
   2  21
     0.006762113182748     0.008852853910059     0.010243207342615
     0.009289487445582     0.005441697044751    -0.009082479743795
     0.011703466862647    -0.009887659954161    -0.014360261931135
   2  22
     0.003318606263183    -0.002732634770164     0.003226376484865
    -0.002059443458728     0.016000649257784    -0.002897858926715
     0.005283200713260    -0.004066937208475     0.006518063779681
   2  23
    -0.014347910374419     0.007461401402035     0.007629300287520
     0.008151158992662    -0.012858612437044     0.001420308178743
     0.009730046090840     0.000123709406677     0.002428167941755
   2  24
    -0.013337086584705     0.007764506548140    -0.000490973646375
     0.008244200114892    -0.015374231069283    -0.006163542307974
     0.001450284668562    -0.007364567570632     0.003492097645191
   2  25
     0.017183686620496    -0.002590214275584     0.003264228631260
    -0.001829727424802     0.001917413060026    -0.003453464041724
     0.005139318728128    -0.004921937093100     0.005315485491543
   2  26
     0.098149403022475     0.005931497325991     0.006619696889359
     0.031393876051879    -0.880066726886132    -0.968772284257505
     0.018010815147418    -0.968555215055598    -0.869127199138392
   2  27
    -0.870011338426072     0.030767898973159     0.956836011387591
     0.006352348374838     0.096330323849257    -0.005555377755053
     0.957483130216810    -0.016486898548354    -0.855012096311707
   2  28
     0.009921660994246    -0.019904445630910    -0.003152614855000
     0.005317122256225    -0.072919979430918    -0.020241883426337
     0.008541387202032     0.000284504543595     0.010002893602372
   2  29
    -0.842391910191406     0.977188385697381     0.010890633793799
     0.977888013507185    -0.838286391299833    -0.010160262121883
     0.013756546540424    -0.011920512255205     0.039043462913862
   2  30
    -0.073345893992621     0.004337163865752     0.020982426181164
    -0.019058523459428     0.008302957410439     0.003792288125364
     0.001522476627596    -0.007202548417576     0.009769177865476
   3   1
    -0.883793555272214     0.011091912086373    -0.996681740258929
    -0.098952282255359    -0.904642238968037     1.144669828618080
    -1.125013803687349     1.019714781710263    -1.893002655431158
   3   2
    -1.023944924654372    -1.214088707971544    -0.039766942388771
    -1.087212337064822    -1.018363841168424     0.044595012038980
    -0.042684958688999     0.039258331844280     0.040854802367752
   3   3
     7.462503543040667     0.226947781014793     0.038533050774271
     0.205375254579327     7.526746303969620    -0.075089630441225
    -0.002511208835602    -0.058932363646422     7.297744097875022
   3   4
    -1.023887147962283    -1.087932753015820    -0.043751307982542
    -1.212972497718023    -1.018261366712475     0.039288407716123
    -0.038781410386714     0.044799483901454     0.040801633300368
   3   5
    -0.883753366898706    -0.100037489490628    -1.125767450689626
     0.011950815235122    -0.904612707296453     1.019619387597085
    -0.995519330774120     1.144595608961482    -1.892873894998976
   3   6
    -0.089969679044549    -0.025766615019377     0.045610202556702
    -0.067122333436848    -0.018015664622388    -0.011445865919342
    -0.011766137650096     0.015187661627202    -0.030376935359003
   3   7
    -1.016506382020374     1.227169596851933    -0.060628917894823
     1.228175546785550    -1.011820879291288     0.062157438230990
    -0.011518311922096     0.015114873600687     0.034688604659932
   3   8
    -0.018396423207585    -0.067958587670381     0.011605303137542
    -0.023621218951820    -0.091039649543052    -0.043925217167519
    -0.013472072706375     0.013052930654496    -0.031088462899042
   3   9
    -1.065379622177396     0.000741338153580     1.161870776181214
    -0.004729145014769     0.119823178491999     0.031329506296369
     1.176821502427742     0.005155004153961    -1.003628985148215
   3  10
     0.123047574514384    -0.004276728493831    -0.032368650781135
     0.000835806056312    -1.077049994546073    -1.172423167061945
    -0.006448657168309    -1.186091339223316    -1.023188009062443
   3  11
     0.028747673218348    -0.043814928482476    -0.021682355242491
     0.009557843412809     0.089976774284093     0.046609532112033
    -0.028598934311389     0.057165793809802     0.071990068191141
   3  12
    -0.081228659511139     0.017633279951424     0.009218923507216
     0.028205807446564    -0.031949948516239    -0.033375490759691
     0.037139438504822    -0.058777076748983    -0.004173913240271
   3  13
    -0.028787710247980     0.027288742716823     0.036049367491323
     0.017568925569963    -0.080868872194958    -0.008734467675098
     0.060774784461485    -0.034096651236716    -0.002652541359125
   3  14
     0.090669624073141     0.006853174752972    -0.045621153924548
    -0.042545693397081     0.028416898798264     0.021775234411411
    -0.056457166169593     0.030327870422439     0.070695785073374
   3  15
     0.075130352176121     0.007643561218551     0.039258588100518
     0.006288217702784     0.073663602097740    -0.038820245097499
     0.009712174554974    -0.008381598344404    -0.039352655664191
   3  16
    -0.026137427218765     0.005760348140996     0.000393065169048
    -0.005820744097325     0.000240778567504    -0.011275528718071
    -0.000058758134838    -0.010313970961269    -0.002359249618998
   3  17
     0.002229901297231    -0.006841401006907     0.010414145187535
     0.006182736832508    -0.027190545279323     0.000689558265563
     0.011142100817397     0.002180371418695    -0.003613976393463
   3  18
     0.004751098232494     0.003178225015005    -0.000898678603975
     0.010572990699675     0.004546417723858     0.012813166749771
    -0.009014362987056     0.006666859350343     0.021839041211926
   3  19
     0.028622951271651    -0.010168284364803     0.011098681770721
    -0.009311363620332     0.028405107905424    -0.009915094195258
     0.019431161694735    -0.017644744909117    -0.011253236433950
   3  20
     0.004180650845590     0.009500125019375    -0.012932366434783
     0.003883873328273     0.003509294256028     0.002573603862613
    -0.005799099770840     0.011017220863620     0.020880979325900
   3  21
     0.017183686620496    -0.002590214275584     0.003264228631260
    -0.001829727424802     0.001917413060026    -0.003453464041724
     0.005139318728128    -0.004921937093100     0.005315485491543
   3  22
     0.006762113182748     0.008852853910059     0.010243207342615
     0.009289487445582     0.005441697044751    -0.009082479743795
     0.011703466862647    -0.009887659954161    -0.014360261931135
   3  23
     0.003318606263183    -0.002732634770164     0.003226376484865
    -0.002059443458728     0.016000649257784    -0.002897858926715
     0.005283200713260    -0.004066937208475     0.006518063779681
   3  24
    -0.014347910374419     0.007461401402035     0.007629300287520
     0.008151158992662    -0.012858612437044     0.001420308178743
     0.009730046090840     0.000123709406677     0.002428167941755
   3  25
    -0.013337086584705     0.007764506548140    -0.000490973646375
     0.008244200114892    -0.015374231069283    -0.006163542307974
     0.001450284668562    -0.007364567570632     0.003492097645191
   3  26
    -0.073345893992621     0.004337163865752     0.020982426181164
    -0.019058523459428     0.008302957410439     0.003792288125364
     0.001522476627596    -0.007202548417576     0.009769177865476
   3  27
     0.098149403022475     0.005931497325991     0.006619696889359
     0.031393876051879    -0.880066726886132    -0.968772284257505
     0.018010815147418    -0.968555215055598    -0.869127199138392
   3  28
    -0.870011338426072     0.030767898973159     0.956836011387591
     0.006352348374838     0.096330323849257    -0.005555377755053
     0.957483130216810    -0.016486898548354    -0.855012096311707
   3  29
     0.009921660994246    -0.019904445630910    -0.003152614855000
     0.005317122256225    -0.072919979430918    -0.020241883426337
     0.008541387202032     0.000284504543595     0.010002893602372
   3  30
    -0.842391910191406     0.977188385697381     0.010890633793799
     0.977888013507185    -0.838286391299833    -0.010160262121883
     0.013756546540424    -0.011920512255205     0.039043462913862
   4   1
    -0.883753366898706    -0.100037489490628    -1.125767450689626
     0.011950815235122    -0.904612707296453     1.019619387597085
    -0.995519330774120     1.144595608961482    -1.892873894998976
   4   2
    -0.883793555272214     0.011091912086373    -0.996681740258929
    -0.098952282255359    -0.904642238968037     1.144669828618080
    -1.125013803687349     1.019714781710263    -1.893002655431158
   4   3
    -1.023944924654372    -1.214088707971544    -0.039766942388771
    -1.087212337064822    -1.018363841168424     0.044595012038980
    -0.042684958688999     0.039258331844280     0.040854802367752
   4   4
     7.462503543040667     0.226947781014793     0.038533050774271
     0.205375254579327     7.526746303969620    -0.075089630441225
    -0.002511208835602    -0.058932363646422     7.297744097875022
   4   5
    -1.023887147962283    -1.087932753015820    -0.043751307982542
    -1.212972497718023    -1.018261366712475     0.039288407716123
    -0.038781410386714     0.044799483901454     0.040801633300368
   4   6
     0.123047574514384    -0.004276728493831    -0.032368650781135
     0.000835806056312    -1.077049994546073    -1.172423167061945
    -0.006448657168309    -1.186091339223316    -1.023188009062443
   4   7
    -0.089969679044549    -0.025766615019377     0.045610202556702
    -0.067122333436848    -0.018015664622388    -0.011445865919342
    -0.011766137650096     0.015187661627202    -0.030376935359003
   4   8
    -1.016506382020374     1.227169596851933    -0.060628917894823
     1.228175546785550    -1.011820879291288     0.062157438230990
    -0.011518311922096     0.015114873600687     0.034688604659932
   4   9
    -0.018396423207585    -0.067958587670381     0.011605303137542
    -0.023621218951820    -0.091039649543052    -0.043925217167519
    -0.013472072706375     0.013052930654496    -0.031088462899042
   4  10
    -1.065379622177396     0.000741338153580     1.161870776181214
    -0.004729145014769     0.119823178491999     0.031329506296369
     1.176821502427742     0.005155004153961    -1.003628985148215
   4  11
     0.075130352176121     0.007643561218551     0.039258588100518
     0.006288217702784     0.073663602097740    -0.038820245097499
     0.009712174554974    -0.008381598344404    -0.039352655664191
   4  12
     0.028747673218348    -0.043814928482476    -0.021682355242491
     0.009557843412809     0.089976774284093     0.046609532112033
    -0.028598934311389     0.057165793809802     0.071990068191141
   4  13
    -0.081228659511139     0.017633279951424     0.009218923507216
     0.028205807446564    -0.031949948516239    -0.033375490759691
     0.037139438504822    -0.058777076748983    -0.004173913240271
   4  14
    -0.028787710247980     0.027288742716823     0.036049367491323
     0.017568925569963    -0.080868872194958    -0.008734467675098
     0.060774784461485    -0.034096651236716    -0.002652541359125
   4  15
     0.090669624073141     0.006853174752972    -0.045621153924548
    -0.042545693397081     0.028416898798264     0.021775234411411
    -0.056457166169593     0.030327870422439     0.070695785073374
   4  16
     0.004180650845590     0.009500125019375    -0.012932366434783
     0.003883873328273     0.003509294256028     0.002573603862613
    -0.005799099770840     0.011017220863620     0.020880979325900
   4  17
    -0.026137427218765     0.005760348140996     0.000393065169048
    -0.005820744097325     0.000240778567504    -0.011275528718071
    -0.000058758134838    -0.010313970961269    -0.002359249618998
   4  18
     0.002229901297231    -0.006841401006907     0.010414145187535
     0.006182736832508    -0.027190545279323     0.000689558265563
     0.011142100817397     0.002180371418695    -0.003613976393463
   4  19
     0.004751098232494     0.003178225015005    -0.000898678603975
     0.010572990699675     0.004546417723858     0.012813166749771
    -0.009014362987056     0.006666859350343     0.021839041211926
   4  20
     0.028622951271651    -0.010168284364803     0.011098681770721
    -0.009311363620332     0.028405107905424    -0.009915094195258
     0.019431161694735    -0.017644744909117    -0.011253236433950
   4  21
    -0.013337086584705     0.007764506548140    -0.000490973646375
     0.008244200114892    -0.015374231069283    -0.006163542307974
     0.001450284668562    -0.007364567570632     0.003492097645191
   4  22
     0.017183686620496    -0.002590214275584     0.003264228631260
    -0.001829727424802     0.001917413060026    -0.003453464041724
     0.005139318728128    -0.004921937093100     0.005315485491543
   4  23
     0.006762113182748     0.008852853910059     0.010243207342615
     0.009289487445582     0.005441697044751    -0.009082479743795
     0.011703466862647    -0.009887659954161    -0.014360261931135
   4  24
     0.003318606263183    -0.002732634770164     0.003226376484865
    -0.002059443458728     0.016000649257784    -0.002897858926715
     0.005283200713260    -0.004066937208475     0.006518063779681
   4  25
    -0.014347910374419     0.007461401402035     0.007629300287520
     0.008151158992662    -0.012858612437044     0.001420308178743
     0.009730046090840     0.000123709406677     0.002428167941755
   4  26
    -0.842391910191406     0.977188385697381     0.010890633793799
     0.977888013507185    -0.838286391299833    -0.010160262121883
     0.013756546540424    -0.011920512255205     0.039043462913862
   4  27
    -0.073345893992621     0.004337163865752     0.020982426181164
    -0.019058523459428     0.008302957410439     0.003792288125364
     0.001522476627596    -0.007202548417576     0.009769177865476
   4  28
     0.098149403022475     0.005931497325991     0.006619696889359
     0.031393876051879    -0.880066726886132    -0.968772284257505
     0.018010815147418    -0.968555215055598    -0.869127199138392
   4  29
    -0.870011338426072     0.030767898973159     0.956836011387591
     0.006352348374838     0.096330323849257    -0.005555377755053
     0.957483130216810    -0.016486898548354    -0.855012096311707
   4  30
     0.009921660994246    -0.019904445630910    -0.003152614855000
     0.005317122256225    -0.072919979430918    -0.020241883426337
     0.008541387202032     0.000284504543595     0.010002893602372
   5   1
    -1.023887147962283    -1.087932753015820    -0.043751307982542
    -1.212972497718023    -1.018261366712475     0.039288407716123
    -0.038781410386714     0.044799483901454     0.040801633300368
   5   2
    -0.883753366898706    -0.100037489490628    -1.125767450689626
     0.011950815235122    -0.904612707296453     1.019619387597085
    -0.995519330774120     1.144595608961482    -1.892873894998976
   5   3
    -0.883793555272214     0.011091912086373    -0.996681740258929
    -0.098952282255359    -0.904642238968037     1.144669828618080
    -1.125013803687349     1.019714781710263    -1.893002655431158
   5   4
    -1.023944924654372    -1.214088707971544    -0.039766942388771
    -1.087212337064822    -1.018363841168424     0.044595012038980
    -0.042684958688999     0.039258331844280     0.040854802367752
   5   5
     7.462503543040667     0.226947781014793     0.038533050774271
     0.205375254579327     7.526746303969620    -0.075089630441225
    -0.002511208835602    -0.058932363646422     7.297744097875022
   5   6
    -1.065379622177396     0.000741338153580     1.161870776181214
    -0.004729145014769     0.119823178491999     0.031329506296369
     1.176821502427742     0.005155004153961    -1.003628985148215
   5   7
     0.123047574514384    -0.004276728493831    -0.032368650781135
     0.000835806056312    -1.077049994546073    -1.172423167061945
    -0.006448657168309    -1.186091339223316    -1.023188009062443
   5   8
    -0.089969679044549    -0.025766615019377     0.045610202556702
    -0.067122333436848    -0.018015664622388    -0.011445865919342
    -0.011766137650096     0.015187661627202    -0.030376935359003
   5   9
    -1.016506382020374     1.227169596851933    -0.060628917894823
     1.228175546785550    -1.011820879291288     0.062157438230990
    -0.011518311922096     0.015114873600687     0.034688604659932
   5  10
    -0.018396423207585    -0.067958587670381     0.011605303137542
    -0.023621218951820    -0.091039649543052    -0.043925217167519
    -0.013472072706375     0.013052930654496    -0.031088462899042
   5  11
     0.090669624073141     0.006853174752972    -0.045621153924548
    -0.042545693397081     0.028416898798264     0.021775234411411
    -0.056457166169593     0.030327870422439     0.070695785073374
   5  12
     0.075130352176121     0.007643561218551     0.039258588100518
     0.006288217702784     0.073663602097740    -0.038820245097499
     0.009712174554974    -0.008381598344404    -0.039352655664191
   5  13
     0.028747673218348    -0.043814928482476    -0.021682355242491
     0.009557843412809     0.089976774284093     0.046609532112033
    -0.028598934311389     0.057165793809802     0.071990068191141
   5  14
    -0.081228659511139     0.017633279951424     0.009218923507216
     0.028205807446564    -0.031949948516239    -0.033375490759691
     0.037139438504822    -0.058777076748983    -0.004173913240271
   5  15
    -0.028787710247980     0.027288742716823     0.036049367491323
     0.017568925569963    -0.080868872194958    -0.008734467675098
     0.060774784461485    -0.034096651236716    -0.002652541359125
   5  16
     0.028622951271651    -0.010168284364803     0.011098681770721
    -0.009311363620332     0.028405107905424    -0.009915094195258
     0.019431161694735    -0.017644744909117    -0.011253236433950
   5  17
     0.004180650845590     0.009500125019375    -0.012932366434783
     0.003883873328273     0.003509294256028     0.002573603862613
    -0.005799099770840     0.011017220863620     0.020880979325900
   5  18
    -0.026137427218765     0.005760348140996     0.000393065169048
    -0.005820744097325     0.000240778567504    -0.011275528718071
    -0.000058758134838    -0.010313970961269    -0.002359249618998
   5  19
     0.002229901297231    -0.006841401006907     0.010414145187535
     0.006182736832508    -0.027190545279323     0.000689558265563
     0.011142100817397     0.002180371418695    -0.003613976393463
   5  20
     0.004751098232494     0.003178225015005    -0.000898678603975
     0.010572990699675     0.004546417723858     0.012813166749771
    -0.009014362987056     0.006666859350343     0.021839041211926
   5  21
    -0.014347910374419     0.007461401402035     0.007629300287520
     0.008151158992662    -0.012858612437044     0.001420308178743
     0.009730046090840     0.000123709406677     0.002428167941755
   5  22
    -0.013337086584705     0.007764506548140    -0.000490973646375
     0.008244200114892    -0.015374231069283    -0.006163542307974
     0.001450284668562    -0.007364567570632     0.003492097645191
   5  23
     0.017183686620496    -0.002590214275584     0.003264228631260
    -0.001829727424802     0.001917413060026    -0.003453464041724