30
Lattice="1.980851412409565 -1.9751628779470314 3.9606593955160756 -7.9808540417535205 7.962075443901928 7.980864815264167 -3.9599735625699277 -5.925471629492875 1.9794723953093887" Properties=Z:I:1:pos:R:3:vasp_force:R:3 uuid=222bf666-7695-4ce8-a60e-314c5b0757ce vasp_virial="-0.11438311823262873 0.1562589023313376 -0.1610786948893589 0.1562589023313376 0.24187817668071135 0.08018860450534494 -0.1610786948893589 0.08018860450534494 -0.35935952421079465" vasp_energy=-144.28593787 pbc="T T T"
      46      -0.02887471      -1.94576649       2.02166513      -0.02975500       0.03020200      -0.05959400 
      46      -2.01277372      -5.89200862       3.99331229      -0.00078500      -0.00066000       0.00092700 
      46      -0.03261401      -3.91685254       3.99365521       0.01167400      -0.01339600       0.02478100 
      46      -2.01242787      -7.86716810       5.97347053       0.01238400      -0.01196100       0.02512900 
      46      -2.01311957      -3.91684914       2.01315405       0.00022200      -0.00012600       0.00054100 
      46      -3.98983014      -3.91998092       3.98987947      -0.00062000       0.00061200       0.00111400 
      46      -2.00967043      -1.94482484       3.99022239      -0.00710400       0.00240500       0.00523000 
      46      -3.98948429      -5.89514040       5.97003770      -0.00094500       0.00716100       0.00458700 
      46      -2.00932458      -3.91998432       5.97038062      -0.00114000       0.00146400       0.00159200 
      46      -2.01001629       0.03033463       2.01006415       0.00863800      -0.00783100       0.00228300 
      46      -5.95997493      -3.92983232       5.95997926      -0.00048200      -0.00115300       0.00059600 
      46      -3.97981522      -1.95467625       5.96032219      -0.00050000       0.00020700      -0.00035000 
      46      -1.99965551       0.02047983       5.96066511      -0.00014200       0.00066700       0.00012200 
      46      -3.97946937      -3.92983572       7.94048042      -0.00102000      -0.00066300      -0.00002600 
      46      -3.98016107       0.02048323       3.98016395       0.00040800       0.00061600       0.00006000 
      46      -5.95030610       0.01062769       5.95026479       0.00191600      -0.00120600      -0.00274100 
      46      -3.97014640       1.98578377       5.95060771       0.00118300      -0.00083900      -0.00231000 
      46      -5.94996025      -1.96453179       7.93042303       0.00108000      -0.00169400      -0.00185800 
      46      -3.96980054       0.01062429       7.93076595       0.00125700      -0.00211400      -0.00192600 
      46      -1.98964084       1.98578036       7.93110887       0.00138700      -0.00184000      -0.00225000 
      46      -7.92701506       0.00749487       7.92699334       0.00027600      -0.00003700      -0.00070900 
      46      -5.94685535       1.98265094       7.92733626       0.00043200       0.00138200      -0.00040300 
      46      -3.96669564       3.95780702       7.92767918       0.00011400       0.00078400      -0.00086100 
      46      -5.94650950       0.00749147       9.90749450      -0.00031400       0.00077800      -0.00046800 
      46      -5.94720120       3.95781042       5.94717802       0.00000700       0.00061300      -0.00023400 
      47      -9.95040014       0.05120401       9.95041365      -0.00440900      -0.00020500       0.00354100 
      47      -7.97024043       2.02636009       9.95075658      -0.00044200       0.00000100      -0.00007600 
      47      -5.99008073       4.00151617       9.95109950       0.00757300      -0.00709000      -0.00024800 
      47      -7.96989458       0.05120061      11.93091481      -0.00064700      -0.00041800       0.00004500 
      47      -7.97058629       4.00151957       7.97059834      -0.00024300       0.00434300       0.00350700 
30
Lattice="1.980851412409565 -1.9751628779470314 3.9606593955160756 -7.9808540417535205 7.962075443901928 7.980864815264167 -3.9599735625699277 -5.925471629492875 1.9794723953093887" Properties=Z:I:1:pos:R:3:vasp_force:R:3 uuid=4cb04d8b-8230-4248-86b2-e8880e20c562 vasp_virial="-0.11493553836208054 0.1500156780111839 -0.16174218361626658 0.1500156780111839 0.24210323673345097 0.08151265910133261 -0.16174218361626658 0.08151265910133261 -0.35969565286099014" vasp_energy=-144.28587462 pbc="T T T"
      46      -0.03295987      -1.94169307       2.01349697      -0.00048200      -0.00076000       0.00091300 
      46      -2.01277372      -5.89200862       3.99331229       0.01252500      -0.01335500       0.00130500 
      46      -0.03261401      -3.91685254       3.99365521       0.00078300      -0.00023100       0.00055300 
      46      -2.01242787      -7.86716810       5.97347053      -0.00124000      -0.01334200      -0.01200300 
      46      -2.01311957      -3.91684914       2.01315405       0.01323300       0.00033100      -0.01227200 
      46      -3.98405211      -3.92574535       3.98410143      -0.04862300       0.04779200       0.04809800 
      46      -2.00967043      -1.94482484       3.99022239      -0.00278900       0.00274600       0.00228700 
      46      -3.98948429      -5.89514040       5.97003770      -0.00153800       0.00337700       0.00236000 
      46      -2.00932458      -3.91998432       5.97038062      -0.00287500       0.00263800       0.00307000 
      46      -2.01001629       0.03033463       2.01006415      -0.00119200       0.00245000       0.00265700 
      46      -5.95997493      -3.92983232       5.95997926       0.01340100      -0.00026800      -0.01187100 
      46      -3.97981522      -1.95467625       5.96032219      -0.00112400      -0.01328400      -0.01283900 
      46      -1.99965551       0.02047983       5.96066511       0.00020400       0.00041700      -0.00037900 
      46      -3.97946937      -3.92983572       7.94048042       0.01246100      -0.01429700       0.00038800 
      46      -3.98016107       0.02048323       3.98016395       0.00024700       0.00038600      -0.00030900 
      46      -5.95030610       0.01062769       5.95026479       0.00235100      -0.00185900      -0.00294700 
      46      -3.97014640       1.98578377       5.95060771       0.00045800      -0.00099300      -0.00140400 
      46      -5.94996025      -1.96453179       7.93042303       0.00062300      -0.00112900      -0.00255700 
      46      -3.96980054       0.01062429       7.93076595       0.00108000      -0.00109800      -0.00097600 
      46      -1.98964084       1.98578036       7.93110887       0.00222700      -0.00223800      -0.00257500 
      46      -7.92701506       0.00749487       7.92699334       0.00022500       0.00002400      -0.00090800 
      46      -5.94685535       1.98265094       7.92733626       0.00040700       0.00150200      -0.00014300 
      46      -3.96669564       3.95780702       7.92767918       0.00025800       0.00081000      -0.00088200 
      46      -5.94650950       0.00749147       9.90749450      -0.00015300       0.00054500      -0.00046400 
      46      -5.94720120       3.95781042       5.94717802       0.00009800       0.00060700      -0.00005500 
      47      -9.95040014       0.05120401       9.95041365      -0.00019900      -0.00071300       0.00051100 
      47      -7.97024043       2.02636009       9.95075658      -0.00019000       0.00026500       0.00009900 
      47      -5.99008073       4.00151617       9.95109950       0.00011500       0.00018100       0.00003500 
      47      -7.96989458       0.05120061      11.93091481      -0.00063200      -0.00067000       0.00007900 
      47      -7.97058629       4.00151957       7.97059834       0.00034000       0.00016600       0.00022900 
30
Lattice="1.980851412409565 -1.9751628779470314 3.9606593955160756 -7.9808540417535205 7.962075443901928 7.980864815264167 -3.9599735625699277 -5.925471629492875 1.9794723953093887" Properties=Z:I:1:pos:R:3:vasp_force:R:3 uuid=c7a754e3-7082-450e-b373-4b93f62c730e vasp_virial="-0.11516936698830352 0.15137772975893277 -0.15573571078016363 0.15137772975893277 0.24482734022894878 0.08126129332814289 -0.15573571078016363 0.08126129332814289 -0.3593302956325167" vasp_energy=-144.28593106 pbc="T T T"
      46      -0.03295987      -1.94169307       2.01349697      -0.00091300      -0.00086200       0.00102400 
      46      -2.01277372      -5.89200862       3.99331229       0.00427100      -0.00223900       0.00084400 
      46      -0.03261401      -3.91685254       3.99365521      -0.00063400      -0.00093100       0.00066400 
      46      -2.01242787      -7.86716810       5.97347053       0.00046800      -0.00563600      -0.00595500 
      46      -2.01311957      -3.91684914       2.01315405      -0.00856700       0.00021200       0.00941500 
      46      -3.99518386      -3.92799190       3.99255563       0.04024700       0.06161100      -0.01833100 
      46      -2.00967043      -1.94482484       3.99022239      -0.01618000      -0.01171300       0.00143700 
      46      -3.98948429      -5.89514040       5.97003770      -0.00091900      -0.00804500       0.00957000 
      46      -2.00932458      -3.91998432       5.97038062      -0.00282300      -0.00743500       0.00945700 
      46      -2.01001629       0.03033463       2.01006415      -0.01595700      -0.01297600       0.00060200 
      46      -5.95997493      -3.92983232       5.95997926      -0.00864400       0.00029200       0.00980600 
      46      -3.97981522      -1.95467625       5.96032219       0.00063100      -0.00506200      -0.00652000 
      46      -1.99965551       0.02047983       5.96066511      -0.00075200      -0.00057200       0.00031000 
      46      -3.97946937      -3.92983572       7.94048042       0.00248500      -0.00302100       0.00027600 
      46      -3.98016107       0.02048323       3.98016395      -0.00066800      -0.00067200       0.00027300 
      46      -5.95030610       0.01062769       5.95026479       0.00182900      -0.00142700      -0.00274600 
      46      -3.97014640       1.98578377       5.95060771       0.00222000      -0.00100000      -0.00300600 
      46      -5.94996025      -1.96453179       7.93042303       0.00142500      -0.00065000      -0.00172700 
      46      -3.96980054       0.01062429       7.93076595       0.00121200      -0.00150800      -0.00160600 
      46      -1.98964084       1.98578036       7.93110887       0.00128800      -0.00174700      -0.00231800 
      46      -7.92701506       0.00749487       7.92699334       0.00040800       0.00009200      -0.00066600 
      46      -5.94685535       1.98265094       7.92733626       0.00058700       0.00154200      -0.00038700 
      46      -3.96669564       3.95780702       7.92767918      -0.00002400       0.00085000      -0.00092100 
      46      -5.94650950       0.00749147       9.90749450      -0.00023900       0.00056900      -0.00033600 
      46      -5.94720120       3.95781042       5.94717802       0.00017600       0.00063100      -0.00035200 
      47      -9.95040014       0.05120401       9.95041365      -0.00012700      -0.00061000       0.00038200 
      47      -7.97024043       2.02636009       9.95075658      -0.00034200       0.00027300       0.00012200 
      47      -5.99008073       4.00151617       9.95109950       0.00019600       0.00035600       0.00003800 
      47      -7.96989458       0.05120061      11.93091481      -0.00076700      -0.00044500       0.00017500 
      47      -7.97058629       4.00151957       7.97059834       0.00011400       0.00012500       0.00047700 
30
Lattice="1.980851412409565 -1.9751628779470314 3.9606593955160756 -7.9808540417535205 7.962075443901928 7.980864815264167 -3.9599735625699277 -5.925471629492875 1.9794723953093887" Properties=Z:I:1:pos:R:3:vasp_force:R:3 uuid=d75a1be1-c0d3-40ae-8d88-c7426fb52fb7 vasp_virial="-0.11331335226765858 0.15478870484396057 -0.16331468112761616 0.15478870484396057 0.2411708450863868 0.07578678061669726 -0.16331468112761616 0.07578678061669726 -0.35851774115639184" vasp_energy=-144.28592036 pbc="T T T"
      46      -0.03295987      -1.94169307       2.01349697       0.00040400       0.00057200       0.00076200 
      46      -2.01277372      -5.89200862       3.99331229      -0.00485300       0.00110600       0.00089300 
      46      -0.03261401      -3.91685254       3.99365521       0.00095100      -0.00002500       0.00037000 
      46      -2.01242787      -7.86716810       5.97347053      -0.00098200       0.00528900       0.00762000 
      46      -2.01311957      -3.91684914       2.01315405       0.00900700      -0.00153500      -0.00865300 
      46      -3.98447643      -3.91196993       3.98720330      -0.04213000      -0.06041300       0.02178000 
      46      -2.00967043      -1.94482484       3.99022239       0.01326500       0.01617200       0.00182700 
      46      -3.98948429      -5.89514040       5.97003770       0.00003900       0.01132600      -0.00753000 
      46      -2.00932458      -3.91998432       5.97038062       0.00016300       0.01089400      -0.00675700 
      46      -2.01001629       0.03033463       2.01006415       0.01436500       0.01507100       0.00328400 
      46      -5.95997493      -3.92983232       5.95997926       0.00813200      -0.00217700      -0.00814900 
      46      -3.97981522      -1.95467625       5.96032219      -0.00147600       0.00587500       0.00646600 
      46      -1.99965551       0.02047983       5.96066511       0.00120800       0.00126100      -0.00011300 
      46      -3.97946937      -3.92983572       7.94048042      -0.00483600       0.00153800       0.00021600 
      46      -3.98016107       0.02048323       3.98016395       0.00121800       0.00136400       0.00005900 
      46      -5.95030610       0.01062769       5.95026479       0.00181000      -0.00086200      -0.00256100 
      46      -3.97014640       1.98578377       5.95060771       0.00080900      -0.00123600      -0.00169600 
      46      -5.94996025      -1.96453179       7.93042303       0.00064000      -0.00246800      -0.00184900 
      46      -3.96980054       0.01062429       7.93076595       0.00115700      -0.00280700      -0.00224800 
      46      -1.98964084       1.98578036       7.93110887       0.00166500      -0.00170400      -0.00224300 
      46      -7.92701506       0.00749487       7.92699334       0.00029400      -0.00035800      -0.00066000 
      46      -5.94685535       1.98265094       7.92733626       0.00027100       0.00142700      -0.00040200 
      46      -3.96669564       3.95780702       7.92767918       0.00013200       0.00081600      -0.00077600 
      46      -5.94650950       0.00749147       9.90749450      -0.00013800       0.00089500      -0.00052200 
      46      -5.94720120       3.95781042       5.94717802       0.00002200       0.00049100      -0.00025500 
      47      -9.95040014       0.05120401       9.95041365      -0.00025200      -0.00055100       0.00052700 
      47      -7.97024043       2.02636009       9.95075658      -0.00034700       0.00019100      -0.00003500 
      47      -5.99008073       4.00151617       9.95109950       0.00015400       0.00030600       0.00027900 
      47      -7.96989458       0.05120061      11.93091481      -0.00093200      -0.00050800       0.00015000 
      47      -7.97058629       4.00151957       7.97059834       0.00024000       0.00004700       0.00021700 
30
Lattice="1.980851412409565 -1.9751628779470314 3.9606593955160756 -7.9808540417535205 7.962075443901928 7.980864815264167 -3.9599735625699277 -5.925471629492875 1.9794723953093887" Properties=Z:I:1:pos:R:3:vasp_force:R:3 uuid=64213829-aa8f-4492-841e-dfd9e6e9821e vasp_virial="-0.11377516380444898 0.1527134757862316 -0.15924021731568064 0.1527134757862316 0.24183433381329458 0.0782215211872441 -0.15924021731568064 0.0782215211872441 -0.3591841527411274" vasp_energy=-144.2859241 pbc="T T T"
      46      -0.03295987      -1.94169307       2.01349697      -0.00029700      -0.00049900       0.00062000 
      46      -2.01277372      -5.89200862       3.99331229       0.00004400      -0.00056400       0.00061100 
      46      -0.03261401      -3.91685254       3.99365521       0.00006800      -0.00055800       0.00037400 
      46      -2.01242787      -7.86716810       5.97347053      -0.00085200       0.00042500       0.00123300 
      46      -2.01311957      -3.91684914       2.01315405       0.00019200      -0.00054200       0.00035100 
      46      -3.98983014      -3.91998092       3.98987947      -0.00540300       0.00103000       0.00499100 
      46      -2.00967043      -1.94482484       3.99022239      -0.00181500       0.00202900       0.00225100 
      46      -3.98948429      -5.89514040       5.97003770       0.00933900      -0.00797600       0.00041700 
      46      -2.00932458      -3.91998432       5.97038062      -0.00139600       0.00161400       0.00217600 
      46      -2.01001629       0.03033463       2.01006415      -0.00069500       0.00608700       0.00609900 
      46      -5.95588977      -3.93390575       5.96814742      -0.03177900       0.03047200      -0.06255300 
      46      -3.97981522      -1.95467625       5.96032219      -0.00205600       0.00203100      -0.00295000 
      46      -1.99965551       0.02047983       5.96066511       0.01290700      -0.01308900       0.02626600 
      46      -3.97946937      -3.92983572       7.94048042       0.01206600      -0.01362200       0.02642500 
      46      -3.98016107       0.02048323       3.98016395      -0.00132000       0.00205800      -0.00270600 
      46      -5.95030610       0.01062769       5.95026479       0.00175900      -0.00105700      -0.00201900 
      46      -3.97014640       1.98578377       5.95060771      -0.00331700      -0.00087300       0.00162600 
      46      -5.94996025      -1.96453179       7.93042303       0.00079900       0.00330000       0.00236400 
      46      -3.96980054       0.01062429       7.93076595       0.00109600      -0.00208600      -0.00130600 
      46      -1.98964084       1.98578036       7.93110887       0.01107100      -0.01131100      -0.00260200 
      46      -7.92701506       0.00749487       7.92699334       0.00032800      -0.00049300      -0.00095200 
      46      -5.94685535       1.98265094       7.92733626       0.00048700       0.00156700      -0.00052900 
      46      -3.96669564       3.95780702       7.92767918      -0.00050300       0.00139000      -0.00050900 
      46      -5.94650950       0.00749147       9.90749450      -0.00027300       0.00065800      -0.00057900 
      46      -5.94720120       3.95781042       5.94717802       0.00046600       0.00055800      -0.00058300 
      47      -9.95040014       0.05120401       9.95041365      -0.00009400      -0.00068200       0.00055500 
      47      -7.97024043       2.02636009       9.95075658      -0.00032400       0.00021100       0.00006200 
      47      -5.99008073       4.00151617       9.95109950       0.00016300       0.00033300       0.00024900 
      47      -7.96989458       0.05120061      11.93091481      -0.00085400      -0.00047200       0.00025200 
      47      -7.97058629       4.00151957       7.97059834       0.00019300       0.00006200       0.00036800 
30
Lattice="1.980851412409565 -1.9751628779470314 3.9606593955160756 -7.9808540417535205 7.962075443901928 7.980864815264167 -3.9599735625699277 -5.925471629492875 1.9794723953093887" Properties=Z:I:1:pos:R:3:vasp_force:R:3 uuid=ae76f9db-febb-43a5-8238-10cd108d5ede vasp_virial="-0.11312921222450799 0.152158132798952 -0.15922852588436948 0.152158132798952 0.24360266279910586 0.07856057269526742 -0.15922852588436948 0.07856057269526742 -0.3579594753112845" vasp_energy=-144.2859192 pbc="T T T"
      46      -0.03295987      -1.94169307       2.01349697      -0.00019800       0.00016900       0.00126800 
      46      -2.01277372      -5.89200862       3.99331229      -0.00064300      -0.00061100       0.00124100 
      46      -0.03261401      -3.91685254       3.99365521       0.00027600      -0.00044600       0.00076100 
      46      -2.01242787      -7.86716810       5.97347053       0.00030900      -0.00075000       0.00064900 
      46      -2.01311957      -3.91684914       2.01315405       0.00010100      -0.00075900       0.00070700 
      46      -3.98983014      -3.91998092       3.98987947       0.00416600       0.00052600      -0.00283400 
      46      -2.00967043      -1.94482484       3.99022239      -0.00166800       0.00182800       0.00106000 
      46      -3.98948429      -5.89514040       5.97003770      -0.01002900       0.01135600       0.00124100 
      46      -2.00932458      -3.91998432       5.97038062      -0.00119000       0.00144500       0.00100200 
      46      -2.01001629       0.03033463       2.01006415      -0.00021500      -0.00357600      -0.00208800 
      46      -5.96406008      -3.92575890       5.95181111       0.02996000      -0.03157800       0.06283800 
      46      -3.97981522      -1.95467625       5.96032219       0.00123500      -0.00137300       0.00286800 
      46      -1.99965551       0.02047983       5.96066511      -0.01296900       0.01318800      -0.02600400 
      46      -3.97946937      -3.92983572       7.94048042      -0.01380800       0.01266300      -0.02584900 
      46      -3.98016107       0.02048323       3.98016395       0.00197000      -0.00134800       0.00311400 
      46      -5.95030610       0.01062769       5.95026479       0.00191400      -0.00126400      -0.00321800 
      46      -3.97014640       1.98578377       5.95060771       0.00625500      -0.00138400      -0.00620500 
      46      -5.94996025      -1.96453179       7.93042303       0.00128500      -0.00636700      -0.00582700 
      46      -3.96980054       0.01062429       7.93076595       0.00130900      -0.00226300      -0.00248800 
      46      -1.98964084       1.98578036       7.93110887      -0.00828900       0.00801000      -0.00178200 
      46      -7.92701506       0.00749487       7.92699334       0.00042800       0.00017100      -0.00030600 
      46      -5.94685535       1.98265094       7.92733626       0.00039900       0.00134900      -0.00017300 
      46      -3.96669564       3.95780702       7.92767918       0.00066000       0.00021100      -0.00109600 
      46      -5.94650950       0.00749147       9.90749450      -0.00006500       0.00077000      -0.00019200 
      46      -5.94720120       3.95781042       5.94717802      -0.00021700       0.00051000       0.00004400 
      47      -9.95040014       0.05120401       9.95041365      -0.00025100      -0.00052200       0.00043800 
      47      -7.97024043       2.02636009       9.95075658      -0.00032700       0.00021600       0.00010700 
      47      -5.99008073       4.00151617       9.95109950       0.00021500       0.00028300       0.00015500 
      47      -7.96989458       0.05120061      11.93091481      -0.00080100      -0.00052300       0.00015800 
      47      -7.97058629       4.00151957       7.97059834       0.00019000       0.00006700       0.00041200 
30
Lattice="1.980851412409565 -1.9751628779470314 3.9606593955160756 -7.9808540417535205 7.962075443901928 7.980864815264167 -3.9599735625699277 -5.925471629492875 1.9794723953093887" Properties=Z:I:1:pos:R:3:vasp_force:R:3 uuid=c897bb3b-5764-4b95-af69-4f9d062778f2 vasp_virial="-0.11404406672460542 0.15227796996989126 -0.15988616889562163 0.15227796996989126 0.24282518261691444 0.07901653851640224 -0.15988616889562163 0.07901653851640224 -0.3580062410365291" vasp_energy=-144.28588834 pbc="T T T"
      46      -0.03295987      -1.94169307       2.01349697      -0.00080100       0.00043400       0.00148300 
      46      -2.01277372      -5.89200862       3.99331229      -0.00093700      -0.00005600       0.00147700 
      46      -0.03261401      -3.91685254       3.99365521       0.00068100      -0.00122000      -0.00033300 
      46      -2.01242787      -7.86716810       5.97347053      -0.00014400      -0.00032300       0.00125500 
      46      -2.01311957      -3.91684914       2.01315405       0.00084700      -0.00118200      -0.00037200 
      46      -3.98983014      -3.91998092       3.98987947      -0.01388600       0.00062600       0.01354300 
      46      -2.00967043      -1.94482484       3.99022239      -0.00176500       0.00203100       0.00199000 
      46      -3.98948429      -5.89514040       5.97003770      -0.01374400       0.01502800       0.00142800 
      46      -2.00932458      -3.91998432       5.97038062      -0.00140900       0.00151700       0.00191700 
      46      -2.01001629       0.03033463       2.01006415      -0.00031500       0.01461000       0.01462100 
      46      -5.96575295      -3.92406789       5.96575730       0.04760500      -0.04840600      -0.04776400 
      46      -3.97981522      -1.95467625       5.96032219       0.00076100      -0.00087100      -0.00094500 
      46      -1.99965551       0.02047983       5.96066511       0.00191400      -0.00131500      -0.00149600 
      46      -3.97946937      -3.92983572       7.94048042       0.00051100      -0.00241200      -0.00132900 
      46      -3.98016107       0.02048323       3.98016395       0.00141200      -0.00093100      -0.00070200 
      46      -5.95030610       0.01062769       5.95026479       0.00183400      -0.00108400      -0.00227300 
      46      -3.97014640       1.98578377       5.95060771      -0.01212600      -0.00140000       0.01058000 
      46      -5.94996025      -1.96453179       7.93042303       0.00130900       0.01215100       0.01129200 
      46      -3.96980054       0.01062429       7.93076595       0.00110900      -0.00221100      -0.00155800 
      46      -1.98964084       1.98578036       7.93110887      -0.01226700       0.01194800      -0.00177600 
      46      -7.92701506       0.00749487       7.92699334      -0.00018500       0.00046700      -0.00007000 
      46      -5.94685535       1.98265094       7.92733626       0.00117800       0.00091300      -0.00129600 
      46      -3.96669564       3.95780702       7.92767918       0.00022000       0.00062800      -0.00047800 
      46      -5.94650950       0.00749147       9.90749450       0.00035200      -0.00004100      -0.00133400 
      46      -5.94720120       3.95781042       5.94717802      -0.00054300       0.00107600       0.00030500 
      47      -9.95040014       0.05120401       9.95041365      -0.00046500      -0.00033500       0.00042400 
      47      -7.97024043       2.02636009       9.95075658      -0.00045000       0.00031000       0.00019500 
      47      -5.99008073       4.00151617       9.95109950       0.00012700       0.00034500       0.00035800 
      47      -7.96989458       0.05120061      11.93091481      -0.00089400      -0.00046400       0.00036200 
      47      -7.97058629       4.00151957       7.97059834       0.00007100       0.00016500       0.00050000 
30
Lattice="1.980851412409565 -1.9751628779470314 3.9606593955160756 -7.9808540417535205 7.962075443901928 7.980864815264167 -3.9599735625699277 -5.925471629492875 1.9794723953093887" Properties=Z:I:1:pos:R:3:vasp_force:R:3 uuid=f6fc2980-ec4f-490e-b711-431aa11fc045 vasp_virial="-0.11298306933311861 0.15208213849542948 -0.15959096025501512 0.15208213849542948 0.2435763570786558 0.07896100421767428 -0.15959096025501512 0.07896100421767428 -0.3584154411324194" vasp_energy=-144.28588747 pbc="T T T"
      46      -0.03295987      -1.94169307       2.01349697       0.00027900      -0.00078400       0.00034200 
      46      -2.01277372      -5.89200862       3.99331229       0.00032900      -0.00112000       0.00030600 
      46      -0.03261401      -3.91685254       3.99365521      -0.00038700       0.00026200       0.00147100 
      46      -2.01242787      -7.86716810       5.97347053      -0.00045100       0.00002100       0.00057200 
      46      -2.01311957      -3.91684914       2.01315405      -0.00062800      -0.00009700       0.00142900 
      46      -3.98983014      -3.91998092       3.98987947       0.01294100       0.00106200      -0.01183300 
      46      -2.00967043      -1.94482484       3.99022239      -0.00178000       0.00185800       0.00126500 
      46      -3.98948429      -5.89514040       5.97003770       0.01328100      -0.01189900       0.00036900 
      46      -2.00932458      -3.91998432       5.97038062      -0.00124000       0.00157500       0.00120700 
      46      -2.01001629       0.03033463       2.01006415      -0.00076000      -0.01241900      -0.01106400 
      46      -5.95419690      -3.93559676       5.95420123      -0.04833300       0.04703900       0.04935000 
      46      -3.97981522      -1.95467625       5.96032219      -0.00153800       0.00162200       0.00082000 
      46      -1.99965551       0.02047983       5.96066511      -0.00145000       0.00199200       0.00170400 
      46      -3.97946937      -3.92983572       7.94048042      -0.00285300       0.00089600       0.00187000 
      46      -3.98016107       0.02048323       3.98016395      -0.00088600       0.00156300       0.00106500 
      46      -5.95030610       0.01062769       5.95026479       0.00182300      -0.00125600      -0.00300000 
      46      -3.97014640       1.98578377       5.95060771       0.01469700      -0.00096700      -0.01479500 
      46      -5.94996025      -1.96453179       7.93042303       0.00086400      -0.01487900      -0.01439400 
      46      -3.96980054       0.01062429       7.93076595       0.00128000      -0.00215400      -0.00226900 
      46      -1.98964084       1.98578036       7.93110887       0.01475100      -0.01497400      -0.00283600 
      46      -7.92701506       0.00749487       7.92699334       0.00089500      -0.00075200      -0.00121100 
      46      -5.94685535       1.98265094       7.92733626      -0.00029400       0.00199800       0.00050300 