  30
   1   1
     6.512306242752319     0.191167762168941     0.197720755680253
     0.172072588133720     5.971218347740811     0.122229183947391
     0.144043886315914     0.143002433564850     5.925783395913958
   1   2
    -0.010923658811266     0.022954390692297     0.000509651067536
     0.010167289725367    -0.634291736839855     0.652522658495881
     0.004793303232845     0.760980363856333    -0.622121524232645
   1   3
     0.008107756138668     0.023945343450964     0.029239610647069
     0.022345084409530    -0.014866784117682     0.077111807085553
     0.029505358861206     0.052650208418510    -0.026971958160234
   1   4
     0.008116184327051     0.021785949497186     0.027653798759450
     0.024546008221232    -0.014852227232707     0.053323510724364
     0.031066643449418     0.076396942343461    -0.026969491217980
   1   5
    -0.010898474063825     0.009688434977405     0.002834481113214
     0.023529829187565    -0.634258565429067     0.761815734592213
     0.002375773194234     0.651662135434216    -0.622164117325695
   1   6
     0.014458483622383     0.001619850865078    -0.020232321466608
     0.002363731226552     0.015626050555061    -0.021616549103981
    -0.018414149030596    -0.022407429108997    -0.082508555992758
   1   7
    -0.007361857691287    -0.032781804463682     0.015300977672612
    -0.032049443050744    -0.035810367801845    -0.029969928178495
     0.017176230009454    -0.030664837505986    -0.018142133021320
   1   8
    -0.023194688164264    -0.003275895084071     0.005989522078254
    -0.002593863328363     0.007343293333220     0.002782080780243
     0.007892877870644     0.002129943186255     0.024001364305136
   1   9
     0.001858184751678     0.015819954828288    -0.026826595220458
     0.016485537364438    -0.052789325705798     0.001207320742000
    -0.024953213875761     0.000521182046844     0.031201379096654
   1  10
     0.008534146953984     0.001495472602594     0.006906039324713
     0.002144078475083    -0.674704675904798    -0.757041582713213
     0.008764814734651    -0.758160634852539    -0.676749714390755
   1  11
    -0.839398729772385     0.007074516570595    -0.922414545201877
    -0.014994934405582     0.074930731264701    -0.013741673628107
    -0.943143867453780     0.011013209857461    -0.874621180980368
   1  12
    -0.827861880612526    -0.928036953044268     0.003256079949097
    -0.947213575654752    -0.871561845877964     0.009805224855861
    -0.009486809849079    -0.003366894968483     0.090068294224447
   1  13
    -0.027501563447231    -0.027524047586077    -0.024701698749051
    -0.027582032623833    -0.007481606120986     0.007089662494597
    -0.025584179362714     0.008566122722488    -0.007144111388490
   1  14
     0.003407150524317    -0.008955280576527     0.013476024661369
     0.004154783352017     0.002779883668593    -0.018206675805201
     0.006794908393826    -0.021570770386910    -0.013214309567755
   1  15
    -0.004981834972976     0.014280117707820    -0.013269583117147
     0.004560317858471    -0.046208902781672    -0.043307495312906
    -0.004227498023815    -0.057291331606758    -0.034671765309672
   1  16
    -0.830129211877107     0.904582338609041    -0.003088542881786
     0.933825599689349    -0.865070891511231    -0.002178534785350
     0.001750572466374     0.005012309716844     0.065057832428398
   1  17
    -0.817569757725577    -0.011010517048944     0.893882681860437
    -0.012342587554587     0.078735720159388    -0.000990424013951
     0.930672975053806    -0.006500951236569    -0.850088759290085
   1  18
    -0.000633951898336     0.004873228651623     0.023748214690755
     0.003787693539547    -0.003620060721371     0.019291079041065
     0.010937215875029     0.007242713621041     0.001057659999926
   1  19
    -0.734256937240420    -0.009821491349537     0.801458938485070
     0.010905930115590     0.065182920458747    -0.009436564656525
     0.785604556610718     0.000107276269190    -0.749783896321171
   1  20
    -0.739087340048454     0.818744350841745     0.001464034033090
     0.788558185565721    -0.764080611085481     0.004432105430102
     0.014964497468225     0.000448971534808     0.049104605939619
   1  21
    -0.848672167137869    -0.984458659978552     0.012964531576099
    -0.986113605836975    -0.888048428098466     0.011405308927343
     0.018014678122392     0.007405743302967     0.093099284136990
   1  22
    -0.851304106454580     0.013242015743967    -0.975317605123160
     0.016568627846808     0.087350474223060     0.012185703912167
    -0.974699045257311     0.012277568316177    -0.886382982911610
   1  23
    -0.003305717558442     0.001221066316384    -0.019915239315591
     0.005258721663776    -0.006338510506699     0.000560375011710
    -0.009708816453128    -0.010007116561307    -0.000445121858603
   1  24
     0.006610621952540    -0.002018259683244     0.007894454829188
    -0.005012793662796     0.013024385783518    -0.005134433498540
     0.000979726378178     0.000803179403536    -0.005334829133346
   1  25
    -0.042149839304767    -0.025627368111131    -0.019658848990525
    -0.028648650712782    -0.017777324829583    -0.000118643539743
    -0.025162258096279     0.006551029327009    -0.008903226212826
   1  26
     0.079141028435005    -0.016846124155729    -0.014161430188134
     0.000271709132356    -0.750007141244527    -0.835386357672054
     0.009645057722349    -0.833569959125692    -0.755031194569850
   1  27
     0.000086897499901     0.018300466580956    -0.011174610313891
     0.018964502414862    -0.042517493981166     0.003722835683387
    -0.016234340826034     0.008978412682737     0.015455855602447
   1  28
    -0.019298583115887    -0.001279835393539     0.006430412516026
     0.007079160804889     0.014375940335825     0.011097900064864
     0.007251370001326    -0.000464696686994     0.016930042499371
   1  29
    -0.011466471414607    -0.025149675054020     0.020293473284867
    -0.024716937376583    -0.021332452908947    -0.014799904289812
     0.022704448502634    -0.006077185525200    -0.011775084488040
   1  30
     0.007367201764519     0.005991867955730    -0.020263335558124
     0.013679075714356     0.015050703558113     0.001346245739118
    -0.003324544594437    -0.005668114800787    -0.038734525504924
   2   1
    -0.010898474063825     0.009688434977405     0.002834481113214
     0.023529829187565    -0.634258565429067     0.761815734592213
     0.002375773194234     0.651662135434216    -0.622164117325695
   2   2
     6.512306242752319     0.191167762168941     0.197720755680253
     0.172072588133720     5.971218347740811     0.122229183947391
     0.144043886315915     0.143002433564850     5.925783395913958
   2   3
    -0.010923658811266     0.022954390692297     0.000509651067536
     0.010167289725367    -0.634291736839855     0.652522658495881
     0.004793303232845     0.760980363856333    -0.622121524232645
   2   4
     0.008107756138668     0.023945343450964     0.029239610647069
     0.022345084409530    -0.014866784117682     0.077111807085553
     0.029505358861206     0.052650208418510    -0.026971958160234
   2   5
     0.008116184327051     0.021785949497186     0.027653798759450
     0.024546008221232    -0.014852227232707     0.053323510724364
     0.031066643449418     0.076396942343461    -0.026969491217980
   2   6
     0.008534146953984     0.001495472602594     0.006906039324713
     0.002144078475083    -0.674704675904798    -0.757041582713213
     0.008764814734651    -0.758160634852539    -0.676749714390755
   2   7
     0.014458483622383     0.001619850865078    -0.020232321466608
     0.002363731226552     0.015626050555061    -0.021616549103981
    -0.018414149030596    -0.022407429108997    -0.082508555992758
   2   8
    -0.007361857691287    -0.032781804463682     0.015300977672612
    -0.032049443050744    -0.035810367801845    -0.029969928178495
     0.017176230009454    -0.030664837505986    -0.018142133021320
   2   9
    -0.023194688164264    -0.003275895084071     0.005989522078254
    -0.002593863328363     0.007343293333220     0.002782080780243
     0.007892877870644     0.002129943186255     0.024001364305136
   2  10
     0.001858184751678     0.015819954828288    -0.026826595220458
     0.016485537364438    -0.052789325705798     0.001207320742000
    -0.024953213875761     0.000521182046844     0.031201379096654
   2  11
    -0.004981834972976     0.014280117707820    -0.013269583117147
     0.004560317858471    -0.046208902781672    -0.043307495312906
    -0.004227498023815    -0.057291331606758    -0.034671765309672
   2  12
    -0.839398729772385     0.007074516570595    -0.922414545201877
    -0.014994934405582     0.074930731264701    -0.013741673628107
    -0.943143867453780     0.011013209857461    -0.874621180980368
   2  13
    -0.827861880612526    -0.928036953044268     0.003256079949097
    -0.947213575654752    -0.871561845877964     0.009805224855861
    -0.009486809849079    -0.003366894968483     0.090068294224447
   2  14
    -0.027501563447231    -0.027524047586077    -0.024701698749051
    -0.027582032623833    -0.007481606120986     0.007089662494597
    -0.025584179362714     0.008566122722488    -0.007144111388490
   2  15
     0.003407150524317    -0.008955280576527     0.013476024661369
     0.004154783352017     0.002779883668593    -0.018206675805201
     0.006794908393826    -0.021570770386910    -0.013214309567755
   2  16
    -0.739087340048454     0.818744350841745     0.001464034033090
     0.788558185565721    -0.764080611085481     0.004432105430102
     0.014964497468225     0.000448971534808     0.049104605939619
   2  17
    -0.830129211877107     0.904582338609041    -0.003088542881786
     0.933825599689349    -0.865070891511231    -0.002178534785350
     0.001750572466374     0.005012309716844     0.065057832428398
   2  18
    -0.817569757725577    -0.011010517048944     0.893882681860436
    -0.012342587554587     0.078735720159388    -0.000990424013951
     0.930672975053806    -0.006500951236569    -0.850088759290085
   2  19
    -0.000633951898336     0.004873228651623     0.023748214690755
     0.003787693539547    -0.003620060721371     0.019291079041065
     0.010937215875029     0.007242713621041     0.001057659999926
   2  20
    -0.734256937240420    -0.009821491349537     0.801458938485070
     0.010905930115590     0.065182920458747    -0.009436564656525
     0.785604556610718     0.000107276269190    -0.749783896321171
   2  21
    -0.042149839304767    -0.025627368111131    -0.019658848990525
    -0.028648650712782    -0.017777324829583    -0.000118643539743
    -0.025162258096279     0.006551029327009    -0.008903226212826
   2  22
    -0.848672167137869    -0.984458659978552     0.012964531576099
    -0.986113605836975    -0.888048428098466     0.011405308927343
     0.018014678122392     0.007405743302967     0.093099284136990
   2  23
    -0.851304106454580     0.013242015743967    -0.975317605123160
     0.016568627846808     0.087350474223060     0.012185703912167
    -0.974699045257312     0.012277568316177    -0.886382982911610
   2  24
    -0.003305717558442     0.001221066316384    -0.019915239315591
     0.005258721663776    -0.006338510506699     0.000560375011710
    -0.009708816453128    -0.010007116561307    -0.000445121858603
   2  25
     0.006610621952540    -0.002018259683244     0.007894454829188
    -0.005012793662796     0.013024385783518    -0.005134433498540
     0.000979726378178     0.000803179403536    -0.005334829133346
   2  26
     0.007367201764519     0.005991867955730    -0.020263335558124
     0.013679075714356     0.015050703558113     0.001346245739118
    -0.003324544594437    -0.005668114800787    -0.038734525504924
   2  27
     0.079141028435005    -0.016846124155729    -0.014161430188134
     0.000271709132356    -0.750007141244527    -0.835386357672054
     0.009645057722349    -0.833569959125692    -0.755031194569850
   2  28
     0.000086897499901     0.018300466580956    -0.011174610313891
     0.018964502414862    -0.042517493981166     0.003722835683387
    -0.016234340826034     0.008978412682737     0.015455855602447
   2  29
    -0.019298583115887    -0.001279835393539     0.006430412516026
     0.007079160804889     0.014375940335825     0.011097900064864
     0.007251370001326    -0.000464696686994     0.016930042499371
   2  30
    -0.011466471414607    -0.025149675054020     0.020293473284867
    -0.024716937376583    -0.021332452908947    -0.014799904289812
     0.022704448502634    -0.006077185525200    -0.011775084488040
   3   1
     0.008116184327051     0.021785949497186     0.027653798759450
     0.024546008221232    -0.014852227232707     0.053323510724364
     0.031066643449418     0.076396942343461    -0.026969491217980
   3   2
    -0.010898474063825     0.009688434977405     0.002834481113214
     0.023529829187565    -0.634258565429067     0.761815734592213
     0.002375773194234     0.651662135434216    -0.622164117325695
   3   3
     6.512306242752319     0.191167762168941     0.197720755680253
     0.172072588133720     5.971218347740811     0.122229183947391
     0.144043886315915     0.143002433564850     5.925783395913958
   3   4
    -0.010923658811266     0.022954390692297     0.000509651067536
     0.010167289725367    -0.634291736839855     0.652522658495881
     0.004793303232845     0.760980363856333    -0.622121524232645
   3   5
     0.008107756138668     0.023945343450964     0.029239610647069
     0.022345084409530    -0.014866784117682     0.077111807085553
     0.029505358861206     0.052650208418510    -0.026971958160234
   3   6
     0.001858184751678     0.015819954828288    -0.026826595220458
     0.016485537364438    -0.052789325705798     0.001207320742000
    -0.024953213875761     0.000521182046844     0.031201379096654
   3   7
     0.008534146953984     0.001495472602594     0.006906039324713
     0.002144078475083    -0.674704675904798    -0.757041582713213
     0.008764814734651    -0.758160634852539    -0.676749714390755
   3   8
     0.014458483622383     0.001619850865078    -0.020232321466608
     0.002363731226552     0.015626050555061    -0.021616549103981
    -0.018414149030596    -0.022407429108997    -0.082508555992758
   3   9
    -0.007361857691287    -0.032781804463682     0.015300977672612
    -0.032049443050744    -0.035810367801845    -0.029969928178495
     0.017176230009454    -0.030664837505986    -0.018142133021320
   3  10
    -0.023194688164264    -0.003275895084071     0.005989522078254
    -0.002593863328363     0.007343293333220     0.002782080780243
     0.007892877870644     0.002129943186255     0.024001364305136
   3  11
     0.003407150524317    -0.008955280576527     0.013476024661369
     0.004154783352017     0.002779883668593    -0.018206675805201
     0.006794908393826    -0.021570770386910    -0.013214309567755
   3  12
    -0.004981834972976     0.014280117707820    -0.013269583117147
     0.004560317858471    -0.046208902781672    -0.043307495312906
    -0.004227498023815    -0.057291331606758    -0.034671765309672
   3  13
    -0.839398729772385     0.007074516570595    -0.922414545201877
    -0.014994934405582     0.074930731264701    -0.013741673628107
    -0.943143867453780     0.011013209857461    -0.874621180980368
   3  14
    -0.827861880612526    -0.928036953044268     0.003256079949097
    -0.947213575654752    -0.871561845877964     0.009805224855861
    -0.009486809849079    -0.003366894968483     0.090068294224447
   3  15
    -0.027501563447231    -0.027524047586077    -0.024701698749051
    -0.027582032623833    -0.007481606120986     0.007089662494597
    -0.025584179362714     0.008566122722488    -0.007144111388490
   3  16
    -0.734256937240420    -0.009821491349537     0.801458938485070
     0.010905930115590     0.065182920458747    -0.009436564656525
     0.785604556610718     0.000107276269190    -0.749783896321171
   3  17
    -0.739087340048454     0.818744350841745     0.001464034033090
     0.788558185565721    -0.764080611085481     0.004432105430102
     0.014964497468225     0.000448971534808     0.049104605939619
   3  18
    -0.830129211877107     0.904582338609041    -0.003088542881786
     0.933825599689349    -0.865070891511231    -0.002178534785350
     0.001750572466374     0.005012309716844     0.065057832428398
   3  19
    -0.817569757725577    -0.011010517048944     0.893882681860436
    -0.012342587554587     0.078735720159388    -0.000990424013951
     0.930672975053806    -0.006500951236569    -0.850088759290085
   3  20
    -0.000633951898336     0.004873228651623     0.023748214690755
     0.003787693539547    -0.003620060721371     0.019291079041065
     0.010937215875029     0.007242713621041     0.001057659999926
   3  21
     0.006610621952540    -0.002018259683244     0.007894454829188
    -0.005012793662796     0.013024385783518    -0.005134433498540
     0.000979726378178     0.000803179403536    -0.005334829133346
   3  22
    -0.042149839304767    -0.025627368111131    -0.019658848990525
    -0.028648650712782    -0.017777324829583    -0.000118643539743
    -0.025162258096279     0.006551029327009    -0.008903226212826
   3  23
    -0.848672167137869    -0.984458659978552     0.012964531576099
    -0.986113605836975    -0.888048428098466     0.011405308927343
     0.018014678122392     0.007405743302967     0.093099284136990
   3  24
    -0.851304106454580     0.013242015743967    -0.975317605123160
     0.016568627846808     0.087350474223060     0.012185703912167
    -0.974699045257312     0.012277568316177    -0.886382982911610
   3  25
    -0.003305717558442     0.001221066316384    -0.019915239315591
     0.005258721663776    -0.006338510506699     0.000560375011710
    -0.009708816453128    -0.010007116561307    -0.000445121858603
   3  26
    -0.011466471414607    -0.025149675054020     0.020293473284867
    -0.024716937376583    -0.021332452908947    -0.014799904289812
     0.022704448502634    -0.006077185525200    -0.011775084488040
   3  27
     0.007367201764519     0.005991867955730    -0.020263335558124
     0.013679075714356     0.015050703558113     0.001346245739118
    -0.003324544594437    -0.005668114800787    -0.038734525504924
   3  28
     0.079141028435005    -0.016846124155729    -0.014161430188134
     0.000271709132356    -0.750007141244527    -0.835386357672054
     0.009645057722349    -0.833569959125692    -0.755031194569850
   3  29
     0.000086897499901     0.018300466580956    -0.011174610313891
     0.018964502414862    -0.042517493981166     0.003722835683387
    -0.016234340826034     0.008978412682737     0.015455855602447
   3  30
    -0.019298583115887    -0.001279835393539     0.006430412516026
     0.007079160804889     0.014375940335825     0.011097900064864
     0.007251370001326    -0.000464696686994     0.016930042499371
   4   1
     0.008107756138668     0.023945343450964     0.029239610647069
     0.022345084409530    -0.014866784117682     0.077111807085553
     0.029505358861206     0.052650208418510    -0.026971958160234
   4   2
     0.008116184327051     0.021785949497186     0.027653798759450
     0.024546008221232    -0.014852227232707     0.053323510724364
     0.031066643449418     0.076396942343461    -0.026969491217980
   4   3
    -0.010898474063825     0.009688434977405     0.002834481113214
     0.023529829187565    -0.634258565429067     0.761815734592213
     0.002375773194234     0.651662135434216    -0.622164117325695
   4   4
     6.512306242752319     0.191167762168941     0.197720755680253
     0.172072588133720     5.971218347740811     0.122229183947391
     0.144043886315915     0.143002433564850     5.925783395913958
   4   5
    -0.010923658811266     0.022954390692297     0.000509651067536
     0.010167289725367    -0.634291736839855     0.652522658495881
     0.004793303232845     0.760980363856333    -0.622121524232645
   4   6
    -0.023194688164264    -0.003275895084071     0.005989522078254
    -0.002593863328363     0.007343293333220     0.002782080780243
     0.007892877870644     0.002129943186255     0.024001364305136
   4   7
     0.001858184751678     0.015819954828288    -0.026826595220458
     0.016485537364438    -0.052789325705798     0.001207320742000
    -0.024953213875761     0.000521182046844     0.031201379096654
   4   8
     0.008534146953984     0.001495472602594     0.006906039324713
     0.002144078475083    -0.674704675904798    -0.757041582713213
     0.008764814734651    -0.758160634852539    -0.676749714390755
   4   9
     0.014458483622383     0.001619850865078    -0.020232321466608
     0.002363731226552     0.015626050555061    -0.021616549103981
    -0.018414149030596    -0.022407429108997    -0.082508555992758
   4  10
    -0.007361857691287    -0.032781804463682     0.015300977672612
    -0.032049443050744    -0.035810367801845    -0.029969928178495
     0.017176230009454    -0.030664837505986    -0.018142133021320
   4  11
    -0.027501563447231    -0.027524047586077    -0.024701698749051
    -0.027582032623833    -0.007481606120986     0.007089662494597
    -0.025584179362714     0.008566122722488    -0.007144111388490
   4  12
     0.003407150524317    -0.008955280576527     0.013476024661369
     0.004154783352017     0.002779883668593    -0.018206675805201
     0.006794908393826    -0.021570770386910    -0.013214309567755
   4  13
    -0.004981834972976     0.014280117707820    -0.013269583117147
     0.004560317858471    -0.046208902781672    -0.043307495312906
    -0.004227498023815    -0.057291331606758    -0.034671765309672
   4  14
    -0.839398729772385     0.007074516570595    -0.922414545201877
    -0.014994934405582     0.074930731264701    -0.013741673628107
    -0.943143867453780     0.011013209857461    -0.874621180980368
   4  15
    -0.827861880612526    -0.928036953044268     0.003256079949097
    -0.947213575654752    -0.871561845877964     0.009805224855861
    -0.009486809849079    -0.003366894968483     0.090068294224447
   4  16
    -0.000633951898336     0.004873228651623     0.023748214690755
     0.003787693539547    -0.003620060721371     0.019291079041065
     0.010937215875029     0.007242713621041     0.001057659999926
   4  17
    -0.734256937240420    -0.009821491349537     0.801458938485070
     0.010905930115590     0.065182920458747    -0.009436564656525
     0.785604556610718     0.000107276269190    -0.749783896321171
   4  18
    -0.739087340048454     0.818744350841745     0.001464034033090
     0.788558185565721    -0.764080611085481     0.004432105430102
     0.014964497468225     0.000448971534808     0.049104605939619
   4  19
    -0.830129211877107     0.904582338609041    -0.003088542881786
     0.933825599689349    -0.865070891511231    -0.002178534785350
     0.001750572466374     0.005012309716844     0.065057832428398
   4  20
    -0.817569757725577    -0.011010517048944     0.893882681860436
    -0.012342587554587     0.078735720159388    -0.000990424013951
     0.930672975053806    -0.006500951236569    -0.850088759290085
   4  21
    -0.003305717558442     0.001221066316384    -0.019915239315591
     0.005258721663776    -0.006338510506699     0.000560375011710
    -0.009708816453128    -0.010007116561307    -0.000445121858603
   4  22
     0.006610621952540    -0.002018259683244     0.007894454829188
    -0.005012793662796     0.013024385783518    -0.005134433498540
     0.000979726378178     0.000803179403536    -0.005334829133346
   4  23
    -0.042149839304767    -0.025627368111131    -0.019658848990525
    -0.028648650712782    -0.017777324829583    -0.000118643539743
    -0.025162258096279     0.006551029327009    -0.008903226212826
   4  24
    -0.848672167137869    -0.984458659978552     0.012964531576099
    -0.986113605836975    -0.888048428098466     0.011405308927343
     0.018014678122392     0.007405743302967     0.093099284136990
   4  25
    -0.851304106454580     0.013242015743967    -0.975317605123160
     0.016568627846808     0.087350474223060     0.012185703912167
    -0.974699045257312     0.012277568316177    -0.886382982911610
   4  26
    -0.019298583115887    -0.001279835393539     0.006430412516026
     0.007079160804889     0.014375940335825     0.011097900064864
     0.007251370001326    -0.000464696686994     0.016930042499371
   4  27
    -0.011466471414607    -0.025149675054020     0.020293473284867
    -0.024716937376583    -0.021332452908947    -0.014799904289812
     0.022704448502634    -0.006077185525200    -0.011775084488040
   4  28
     0.007367201764519     0.005991867955730    -0.020263335558124
     0.013679075714356     0.015050703558113     0.001346245739118
    -0.003324544594437    -0.005668114800787    -0.038734525504924
   4  29
     0.079141028435005    -0.016846124155729    -0.014161430188134
     0.000271709132356    -0.750007141244527    -0.835386357672054
     0.009645057722349    -0.833569959125692    -0.755031194569850
   4  30
     0.000086897499901     0.018300466580956    -0.011174610313891
     0.018964502414862    -0.042517493981166     0.003722835683387
    -0.016234340826034     0.008978412682737     0.015455855602447
   5   1
    -0.010923658811266     0.022954390692297     0.000509651067536
     0.010167289725367    -0.634291736839855     0.652522658495881
     0.004793303232845     0.760980363856333    -0.622121524232645
   5   2
     0.008107756138668     0.023945343450964     0.029239610647069
     0.022345084409530    -0.014866784117682     0.077111807085553
     0.029505358861206     0.052650208418510    -0.026971958160234
   5   3
     0.008116184327051     0.021785949497186     0.027653798759450
     0.024546008221232    -0.014852227232707     0.053323510724364
     0.031066643449418     0.076396942343461    -0.026969491217980
   5   4
    -0.010898474063825     0.009688434977405     0.002834481113214
     0.023529829187565    -0.634258565429067     0.761815734592213
     0.002375773194234     0.651662135434216    -0.622164117325695
   5   5
     6.512306242752319     0.191167762168941     0.197720755680253
     0.172072588133720     5.971218347740811     0.122229183947391
     0.144043886315915     0.143002433564850     5.925783395913958
   5   6
    -0.007361857691287    -0.032781804463682     0.015300977672612
    -0.032049443050744    -0.035810367801845    -0.029969928178495
     0.017176230009454    -0.030664837505986    -0.018142133021320
   5   7
    -0.023194688164264    -0.003275895084071     0.005989522078254
    -0.002593863328363     0.007343293333220     0.002782080780243
     0.007892877870644     0.002129943186255     0.024001364305136
   5   8
     0.001858184751678     0.015819954828288    -0.026826595220458
     0.016485537364438    -0.052789325705798     0.001207320742000
    -0.024953213875761     0.000521182046844     0.031201379096654
   5   9
     0.008534146953984     0.001495472602594     0.006906039324713
     0.002144078475083    -0.674704675904798    -0.757041582713213
     0.008764814734651    -0.758160634852539    -0.676749714390755
   5  10
     0.014458483622383     0.001619850865078    -0.020232321466608
     0.002363731226552     0.015626050555061    -0.021616549103981
    -0.018414149030596    -0.022407429108997    -0.082508555992758
   5  11
    -0.827861880612526    -0.928036953044268     0.003256079949097
    -0.947213575654752    -0.871561845877964     0.009805224855861
    -0.009486809849079    -0.003366894968483     0.090068294224447
   5  12
    -0.027501563447231    -0.027524047586077    -0.024701698749051
    -0.027582032623833    -0.007481606120986     0.007089662494597
    -0.025584179362714     0.008566122722488    -0.007144111388490
   5  13
     0.003407150524317    -0.008955280576527     0.013476024661369
     0.004154783352017     0.002779883668593    -0.018206675805201
     0.006794908393826    -0.021570770386910    -0.013214309567755
   5  14
    -0.004981834972976     0.014280117707820    -0.013269583117147
     0.004560317858471    -0.046208902781672    -0.043307495312906
    -0.004227498023815    -0.057291331606758    -0.034671765309672
   5  15
    -0.839398729772385     0.007074516570595    -0.922414545201877
    -0.014994934405582     0.074930731264701    -0.013741673628107
    -0.943143867453780     0.011013209857461    -0.874621180980368
   5  16
    -0.817569757725577    -0.011010517048944     0.893882681860436
    -0.012342587554587     0.078735720159388    -0.000990424013951
     0.930672975053806    -0.006500951236569    -0.850088759290085
   5  17
    -0.000633951898336     0.004873228651623     0.023748214690755
     0.003787693539547    -0.003620060721371     0.019291079041065
     0.010937215875029     0.007242713621041     0.001057659999926
   5  18
    -0.734256937240420    -0.009821491349537     0.801458938485070
     0.010905930115590     0.065182920458747    -0.009436564656525
     0.785604556610718     0.000107276269190    -0.749783896321171
   5  19
    -0.739087340048454     0.818744350841745     0.001464034033090
     0.788558185565721    -0.764080611085481     0.004432105430102
     0.014964497468225     0.000448971534808     0.049104605939619
   5  20
    -0.830129211877107     0.904582338609041    -0.003088542881786
     0.933825599689349    -0.865070891511231    -0.002178534785350
     0.001750572466374     0.005012309716844     0.065057832428398
   5  21
    -0.851304106454580     0.013242015743967    -0.975317605123160
     0.016568627846808     0.087350474223060     0.012185703912167
    -0.974699045257312     0.012277568316177    -0.886382982911610
   5  22
    -0.003305717558442     0.001221066316384    -0.019915239315591
     0.005258721663776    -0.006338510506699     0.000560375011710
    -0.009708816453128    -0.010007116561307    -0.000445121858603
   5  23
     0.006610621952540    -0.002018259683244     0.007894454829188
    -0.005012793662796     0.013024385783518    -0.005134433498540