30
Lattice="-4.04218039441299 6.132238707319361 -2.062918897303096 2.008653869837365 2.0006990699870815 8.146582031074665 6.050263676866534 6.1123648123583365 -0.0337732296498863" Properties=Z:I:1:pos:R:3:vasp_force:R:3 uuid=0d4afa1c-e61c-4f3a-bd71-9870d358f8b2 vasp_virial="-0.06697006250633716 0.07102065844473408 -0.23962671438050556 0.07102065844473408 -0.04612270188860958 0.10689107558243222 -0.23962671438050556 0.10689107558243222 -0.03224437900340338" vasp_energy=-108.06850936 pbc="T T T"
      46       6.03482639       8.13333656       6.07309787       0.03107900      -0.04770300       0.01717600 
      46       4.03158519       4.07581837      -0.02212522      -0.00265600       0.00546600      -0.00561200 
      46      -0.01048109       8.15927619      -0.03638929      -0.00221200      -0.00084400      -0.00003600 
      46      -0.01036697       6.11049530       2.01226554      -0.00232900      -0.00040700       0.00018200 
      46      -0.01025285       4.06171441       4.06092038      -0.00223400       0.00609700      -0.00682700 
      46       4.03131868       6.10456121       2.00706358       0.00326000       0.00052500      -0.00039200 
      46      -0.01074760      10.18801903       1.99279951       0.00259000       0.00086200       0.00028300 
      46      -0.01063348       8.13923814       4.04145434       0.00160800       0.00055400      -0.00037000 
      46      -0.01051937       6.09045725       6.09010918       0.00236600       0.00126500      -0.00092600 
      46       4.03120456       8.15334210      -0.04159125       0.00169100       0.00358300       0.00488200 
      47       4.04215538       8.13927973       4.04175347      -0.00789000       0.00072700      -0.00636200 
      47       4.04226949       6.09049884       6.09040830       0.00172200       0.00295000       0.00086300 
      47      -2.00845065       8.17325758      -2.07043780      -0.00118400       0.00149400       0.00063900 
      47      -2.00833654       6.12447669      -0.02178297      -0.00166000       0.00046400       0.00097900 
      47       4.04204126      10.18806062       1.99309864      -0.00126500       0.00097800       0.00146000 
      47       4.04123502      10.17414047       6.07571508      -0.01398700       0.01102900       0.00234000 
      47       2.03269527       6.12466051      -0.02221212      -0.00256900      -0.00102100       0.00463400 
      47       2.03280939       4.07587962       2.02644271      -0.00138800      -0.00030700       0.00198200 
      47      -2.00925689       8.15933744       2.01217864      -0.00350400      -0.00112900       0.00438500 
      47       4.04112091      12.22292136       4.02706025      -0.01142600       0.00988000       0.00221200 
      47       1.98840725       4.04164293       6.09015352       0.00466100       0.00168500      -0.00047900 
      47       8.03878504       8.10522685       8.10503513      -0.00550500      -0.00041600      -0.00917700 
      47       1.98806490      10.18798560      -0.05581097       0.00136400       0.00076700      -0.00143500 
      47       1.98817901       8.13920471       1.99284386       0.00146800       0.00042100      -0.00153200 
      47       1.98829313       6.09042382       4.04149869       0.00160000       0.00002600      -0.00101700 
      47       6.02910127       6.09008137       4.04204182       0.00160800       0.00329800       0.00214600 
      47       1.98703499      10.17353919       4.02777775       0.00085200       0.00029200      -0.00272300 
      47       1.98714911       8.12475830       6.07643259       0.00082700      -0.00062300      -0.00277500 
      47      -0.02139064       4.07527834      -0.02149461       0.00167500      -0.00005800      -0.00200800 
      47      -0.02127653       2.02649745       2.02716022       0.00143800       0.00014700      -0.00249200 
30
Lattice="-4.04218039441299 6.132238707319361 -2.062918897303096 2.008653869837365 2.0006990699870815 8.146582031074665 6.050263676866534 6.1123648123583365 -0.0337732296498863" Properties=Z:I:1:pos:R:3:vasp_force:R:3 uuid=352eb200-fa57-456e-aaf0-1dbd7c5f3cb6 vasp_virial="-0.06720592795306057 0.07346422447278873 -0.24080604161412267 0.07346422447278873 -0.04899397059338938 0.10602309073848999 -0.24080604161412267 0.10602309073848999 -0.0317474891289727" vasp_energy=-108.06849627 pbc="T T T"
      46       6.04012494       8.12529833       6.07580198      -0.00233600      -0.00167500      -0.00017900 
      46       4.03158519       4.07581837      -0.02212522      -0.00240400      -0.01058600      -0.00715200 
      46      -0.01048109       8.15927619      -0.03638929      -0.00235800      -0.00128100       0.00073900 
      46      -0.01036697       6.11049530       2.01226554      -0.00225000      -0.00079500       0.00079300 
      46      -0.01025285       4.06171441       4.06092038      -0.00195400      -0.00137000       0.00093200 
      46       4.02899001       6.10224177       1.99761913       0.02016600       0.01598500       0.05671300 
      46      -0.01074760      10.18801903       1.99279951       0.00236000       0.00549500      -0.00404800 
      46      -0.01063348       8.13923814       4.04145434       0.00205300       0.00138500      -0.00050800 
      46      -0.01051937       6.09045725       6.09010918       0.00289200       0.00130700      -0.00086200 
      46       4.03120456       8.15334210      -0.04159125       0.00167300       0.00605900      -0.00384800 
      47       4.04215538       8.13927973       4.04175347      -0.00066400      -0.00809500      -0.00801800 
      47       4.04226949       6.09049884       6.09040830      -0.00146900       0.00087900       0.00027400 
      47      -2.00845065       8.17325758      -2.07043780      -0.00107000       0.00141800       0.00075300 
      47      -2.00833654       6.12447669      -0.02178297      -0.00163500       0.00064400       0.00100200 
      47       4.04204126      10.18806062       1.99309864      -0.00130900       0.00074000       0.00141000 
      47       4.04123502      10.17414047       6.07571508      -0.00189400      -0.00108600       0.00210200 
      47       2.03269527       6.12466051      -0.02221212      -0.01226700       0.00008600      -0.00863100 
      47       2.03280939       4.07587962       2.02644271      -0.00550800      -0.00465900       0.00296900 
      47      -2.00925689       8.15933744       2.01217864      -0.00205700      -0.00057400       0.00196600 
      47       4.04112091      12.22292136       4.02706025      -0.00147100      -0.00028700       0.00208100 
      47       1.98840725       4.04164293       6.09015352       0.00127800      -0.00014400      -0.00059700 
      47       8.03878504       8.10522685       8.10503513       0.00862000       0.00028400      -0.00761600 
      47       1.98806490      10.18798560      -0.05581097       0.00167700       0.00092400      -0.00071800 
      47       1.98817901       8.13920471       1.99284386       0.00164000       0.00069000      -0.00111900 
      47       1.98829313       6.09042382       4.04149869       0.00731000       0.00015000      -0.00607900 
      47       6.02910127       6.09008137       4.04204182      -0.00945300      -0.00006100      -0.01261300 
      47       1.98703499      10.17353919       4.02777775       0.00099800      -0.00076500      -0.00313000 
      47       1.98714911       8.12475830       6.07643259       0.00103300      -0.00068700      -0.00289800 
      47      -0.02139064       4.07527834      -0.02149461       0.00109600      -0.00005400      -0.00230800 
      47      -0.02127653       2.02649745       2.02716022      -0.00269700      -0.00392500      -0.00140600 
30
Lattice="-4.04218039441299 6.132238707319361 -2.062918897303096 2.008653869837365 2.0006990699870815 8.146582031074665 6.050263676866534 6.1123648123583365 -0.0337732296498863" Properties=Z:I:1:pos:R:3:vasp_force:R:3 uuid=57be344f-6f3b-4ae0-a918-06239e97245f vasp_virial="-0.06951740933095012 0.07455549527296244 -0.2401770670895269 0.07455549527296244 -0.04987453492782348 0.11072153043722058 -0.2401770670895269 0.11072153043722058 -0.03244565085127403" vasp_energy=-108.06850568 pbc="T T T"
      46       6.04012494       8.12529833       6.07580198      -0.00232800      -0.00162500       0.00101000 
      46       4.03158519       4.07581837      -0.02212522      -0.00258700       0.00305500       0.00641100 
      46      -0.01048109       8.15927619      -0.03638929      -0.00230200      -0.00093200       0.00070500 
      46      -0.01036697       6.11049530       2.01226554      -0.00208800      -0.00085300       0.00050400 
      46      -0.01025285       4.06171441       4.06092038      -0.00175200      -0.00043300       0.00126400 
      46       4.03835349       6.11166823       2.00702431      -0.04354700      -0.04346400      -0.00264100 
      46      -0.01074760      10.18801903       1.99279951       0.00222900       0.00527900      -0.00534700 
      46      -0.01063348       8.13923814       4.04145434       0.00144600       0.00060200      -0.00099300 
      46      -0.01051937       6.09045725       6.09010918       0.00232000       0.00073100      -0.00158800 
      46       4.03120456       8.15334210      -0.04159125       0.00160700       0.00463600      -0.00416000 
      47       4.04215538       8.13927973       4.04175347      -0.00151700       0.00677500       0.00698500 
      47       4.04226949       6.09049884       6.09040830      -0.00164300       0.00073500       0.00084100 
      47      -2.00845065       8.17325758      -2.07043780      -0.00095200       0.00191100       0.00083500 
      47      -2.00833654       6.12447669      -0.02178297      -0.00159900       0.00052700       0.00070200 
      47       4.04204126      10.18806062       1.99309864      -0.00134500       0.00088500       0.00135800 
      47       4.04123502      10.17414047       6.07571508      -0.00182900      -0.00094500       0.00231100 
      47       2.03269527       6.12466051      -0.02221212       0.00489900      -0.00096500       0.00887200 
      47       2.03280939       4.07587962       2.02644271       0.01125100       0.01255000       0.00187000 
      47      -2.00925689       8.15933744       2.01217864      -0.00116400      -0.00022900       0.00226000 
      47       4.04112091      12.22292136       4.02706025      -0.00150500      -0.00039800       0.00213000 
      47       1.98840725       4.04164293       6.09015352       0.00113600      -0.00022400      -0.00098600 
      47       8.03878504       8.10522685       8.10503513       0.00759500      -0.00032200      -0.00798500 
      47       1.98806490      10.18798560      -0.05581097       0.00062100       0.00056800      -0.00125600 
      47       1.98817901       8.13920471       1.99284386       0.00098400       0.00021700      -0.00161300 
      47       1.98829313       6.09042382       4.04149869       0.00670800      -0.00034700      -0.00638800 
      47       6.02910127       6.09008137       4.04204182       0.00717100      -0.00094700       0.00423200 
      47       1.98703499      10.17353919       4.02777775       0.00103500       0.00008000      -0.00224600 
      47       1.98714911       8.12475830       6.07643259       0.00089400      -0.00042500      -0.00270500 
      47      -0.02139064       4.07527834      -0.02149461       0.00184600       0.00019500      -0.00205400 
      47      -0.02127653       2.02649745       2.02716022       0.01441600       0.01336700      -0.00232900 
30
Lattice="-4.04218039441299 6.132238707319361 -2.062918897303096 2.008653869837365 2.0006990699870815 8.146582031074665 6.050263676866534 6.1123648123583365 -0.0337732296498863" Properties=Z:I:1:pos:R:3:vasp_force:R:3 uuid=7681fc45-c5df-4612-bc99-ce3cf78b0cad vasp_virial="-0.07050175446194254 0.0748888517709982 -0.23801024985229444 0.0748888517709982 -0.048651179477484666 0.10483747375962692 -0.23801024985229444 0.10483747375962692 -0.03415331668555162" vasp_energy=-108.06845826 pbc="T T T"
      46       6.04012494       8.12529833       6.07580198      -0.00205700      -0.00135600       0.00039600 
      46       4.03158519       4.07581837      -0.02212522      -0.00240600      -0.00643300      -0.00422700 
      46      -0.01048109       8.15927619      -0.03638929      -0.00200800      -0.00144000       0.00031400 
      46      -0.01036697       6.11049530       2.01226554      -0.00242000      -0.00077400       0.00059900 
      46      -0.01025285       4.06171441       4.06092038      -0.00228100      -0.00137900       0.00102700 
      46       4.02428386       6.09745418       2.00710285       0.04958400       0.04350700       0.00215700 
      46      -0.01074760      10.18801903       1.99279951       0.00244200      -0.00362900       0.00554200 
      46      -0.01063348       8.13923814       4.04145434       0.00194100       0.00071200       0.00012900 
      46      -0.01051937       6.09045725       6.09010918       0.00278300       0.00087400      -0.00010500 
      46       4.03120456       8.15334210      -0.04159125       0.00163100      -0.00409400       0.00514200 
      47       4.04215538       8.13927973       4.04175347      -0.00036800      -0.00401100      -0.00503500 
      47       4.04226949       6.09049884       6.09040830      -0.00131100       0.00105400       0.00055100 
      47      -2.00845065       8.17325758      -2.07043780      -0.00143300       0.00127600       0.00088300 
      47      -2.00833654       6.12447669      -0.02178297      -0.00173600       0.00073400       0.00092100 
      47       4.04204126      10.18806062       1.99309864      -0.00103900       0.00056000       0.00122500 
      47       4.04123502      10.17414047       6.07571508      -0.00176600      -0.00099600       0.00201100 
      47       2.03269527       6.12466051      -0.02221212      -0.00673200       0.00048300      -0.00463300 
      47       2.03280939       4.07587962       2.02644271      -0.01468000      -0.01391000       0.00217900 
      47      -2.00925689       8.15933744       2.01217864      -0.00212800      -0.00082100       0.00195500 
      47       4.04112091      12.22292136       4.02706025      -0.00145000      -0.00022000       0.00214100 
      47       1.98840725       4.04164293       6.09015352       0.00121400      -0.00018600      -0.00040600 
      47       8.03878504       8.10522685       8.10503513      -0.00412100       0.00066300       0.00461500 
      47       1.98806490      10.18798560      -0.05581097       0.00224700       0.00102000      -0.00136300 
      47       1.98817901       8.13920471       1.99284386       0.00182600       0.00089700      -0.00156000 
      47       1.98829313       6.09042382       4.04149869      -0.00350100       0.00046300       0.00479100 
      47       6.02910127       6.09008137       4.04204182      -0.00470600       0.00023600      -0.00886200 
      47       1.98703499      10.17353919       4.02777775       0.00106300      -0.00035000      -0.00307300 
      47       1.98714911       8.12475830       6.07643259       0.00103200      -0.00048800      -0.00280100 
      47      -0.02139064       4.07527834      -0.02149461       0.00110200      -0.00027800      -0.00232700 
      47      -0.02127653       2.02649745       2.02716022      -0.01072400      -0.01211600      -0.00218800 
30
Lattice="-4.04218039441299 6.132238707319361 -2.062918897303096 2.008653869837365 2.0006990699870815 8.146582031074665 6.050263676866534 6.1123648123583365 -0.0337732296498863" Properties=Z:I:1:pos:R:3:vasp_force:R:3 uuid=33d8f589-9050-4ae0-9d9d-ed48cf24f7ef vasp_virial="-0.07633549317756855 0.07837966038250486 -0.23985629008198306 0.07837966038250486 -0.05235583942735388 0.10744771803669947 -0.23985629008198306 0.10744771803669947 -0.037282464945415685" vasp_energy=-108.06851179 pbc="T T T"
      46       6.04012494       8.12529833       6.07580198      -0.00911000      -0.00217500      -0.00667800 
      46       4.03158519       4.07581837      -0.02212522      -0.00269500      -0.00135200       0.00147500 
      46      -0.01048109       8.15927619      -0.03638929      -0.00203900      -0.00123800       0.00065000 
      46      -0.01036697       6.11049530       2.01226554      -0.00226000      -0.00087200       0.00029800 
      46      -0.01025285       4.06171441       4.06092038       0.00106200       0.00109800       0.00133600 
      46       4.03131868       6.10456121       2.00706358       0.00374800       0.00449500       0.00440400 
      46      -0.01074760      10.18801903       1.99279951       0.00214000       0.00133300      -0.00012800 
      46      -0.01063348       8.13923814       4.04145434       0.00161400       0.00061900      -0.00037800 
      46      -0.01051937       6.09045725       6.09010918       0.00274300       0.00080800      -0.00074500 
      46       4.03120456       8.15334210      -0.04159125       0.00156000       0.00018600       0.00044900 
      47       4.03685682       8.14731796       4.03904936       0.03162000      -0.04758800       0.01628300 
      47       4.04226949       6.09049884       6.09040830      -0.00071800       0.00868200      -0.00787000 
      47      -2.00845065       8.17325758      -2.07043780      -0.00148300       0.00168100       0.00092700 
      47      -2.00833654       6.12447669      -0.02178297      -0.00193100       0.00073400       0.00088000 
      47       4.04204126      10.18806062       1.99309864      -0.00041700       0.00884600      -0.00731900 
      47       4.04123502      10.17414047       6.07571508      -0.00108500       0.00292600       0.00718800 
      47       2.03269527       6.12466051      -0.02221212      -0.00078200      -0.00043000       0.00201600 
      47       2.03280939       4.07587962       2.02644271      -0.00125500      -0.00033100       0.00212100 
      47      -2.00925689       8.15933744       2.01217864      -0.00199100      -0.00071100       0.00212800 
      47       4.04112091      12.22292136       4.02706025      -0.00164400       0.00029400       0.00208800 
      47       1.98840725       4.04164293       6.09015352       0.00119400      -0.00011700      -0.00080100 
      47       8.03878504       8.10522685       8.10503513       0.00146600       0.00016900      -0.00177700 
      47       1.98806490      10.18798560      -0.05581097       0.00126200       0.00099300      -0.00149900 
      47       1.98817901       8.13920471       1.99284386      -0.00469400      -0.00028500      -0.00779000 
      47       1.98829313       6.09042382       4.04149869       0.00442700       0.00156800      -0.00053000 
      47       6.02910127       6.09008137       4.04204182      -0.01157300       0.01255400      -0.00216400 
      47       1.98703499      10.17353919       4.02777775      -0.00988100       0.01059600      -0.00250500 
      47       1.98714911       8.12475830       6.07643259      -0.00060400      -0.00157900      -0.00038600 
      47      -0.02139064       4.07527834      -0.02149461       0.00150000       0.00014600      -0.00242300 
      47      -0.02127653       2.02649745       2.02716022      -0.00017400      -0.00104900       0.00075100 
30
Lattice="-4.04218039441299 6.132238707319361 -2.062918897303096 2.008653869837365 2.0006990699870815 8.146582031074665 6.050263676866534 6.1123648123583365 -0.0337732296498863" Properties=Z:I:1:pos:R:3:vasp_force:R:3 uuid=d5369677-0ae0-40b2-9bda-06791dd14294 vasp_virial="-0.0635264269841752 0.06846387700225218 -0.2367397213126109 0.06846387700225218 -0.04367913586055491 0.10776849504424332 -0.2367397213126109 0.10776849504424332 -0.029492615458296782" vasp_energy=-108.06848919 pbc="T T T"
      46       6.04012494       8.12529833       6.07580198       0.00489100      -0.00073800       0.00824700 
      46       4.03158519       4.07581837      -0.02212522      -0.00234300      -0.00191500       0.00081400 
      46      -0.01048109       8.15927619      -0.03638929      -0.00229400      -0.00113700       0.00032900 
      46      -0.01036697       6.11049530       2.01226554      -0.00227900      -0.00074200       0.00077000 
      46      -0.01025285       4.06171441       4.06092038      -0.00510100      -0.00293200       0.00092100 
      46       4.03131868       6.10456121       2.00706358       0.00271300      -0.00303400      -0.00497000 
      46      -0.01074760      10.18801903       1.99279951       0.00248900       0.00042800       0.00013400 
      46      -0.01063348       8.13923814       4.04145434       0.00176300       0.00070600      -0.00052700 
      46      -0.01051937       6.09045725       6.09010918       0.00235300       0.00080100      -0.00098800 
      46       4.03120456       8.15334210      -0.04159125       0.00168400       0.00026700       0.00063300 
      47       4.04745393       8.13124150       4.04445757      -0.03354500       0.04859700      -0.01338400 
      47       4.04226949       6.09049884       6.09040830      -0.00230500      -0.00714800       0.00954900 
      47      -2.00845065       8.17325758      -2.07043780      -0.00091900       0.00151800       0.00075500 
      47      -2.00833654       6.12447669      -0.02178297      -0.00141100       0.00053900       0.00069800 
      47       4.04204126      10.18806062       1.99309864      -0.00192400      -0.00711900       0.00953900 
      47       4.04123502      10.17414047       6.07571508      -0.00250000      -0.00482800      -0.00282900 
      47       2.03269527       6.12466051      -0.02221212      -0.00095800      -0.00008800       0.00234100 
      47       2.03280939       4.07587962       2.02644271      -0.00153200      -0.00034400       0.00188400 
      47      -2.00925689       8.15933744       2.01217864      -0.00132100      -0.00032300       0.00204300 
      47       4.04112091      12.22292136       4.02706025      -0.00132700      -0.00090200       0.00214100 
      47       1.98840725       4.04164293       6.09015352       0.00113700      -0.00028000      -0.00063500 
      47       8.03878504       8.10522685       8.10503513       0.00188100       0.00022700      -0.00147100 
      47       1.98806490      10.18798560      -0.05581097       0.00161800       0.00056900      -0.00116300 
      47       1.98817901       8.13920471       1.99284386       0.00731300       0.00138500       0.00441600 
      47       1.98829313       6.09042382       4.04149869      -0.00113300      -0.00145800      -0.00127100 
      47       6.02910127       6.09008137       4.04204182       0.01447500      -0.01375700      -0.00270900 
      47       1.98703499      10.17353919       4.02777775       0.01145800      -0.01038900      -0.00282100 
      47       1.98714911       8.12475830       6.07643259       0.00253000       0.00065700      -0.00515800 
      47      -0.02139064       4.07527834      -0.02149461       0.00143100      -0.00022100      -0.00199600 
      47      -0.02127653       2.02649745       2.02716022       0.00315800       0.00166100      -0.00529600 
30
Lattice="-4.04218039441299 6.132238707319361 -2.062918897303096 2.008653869837365 2.0006990699870815 8.146582031074665 6.050263676866534 6.1123648123583365 -0.0337732296498863" Properties=Z:I:1:pos:R:3:vasp_force:R:3 uuid=b12ac759-7511-4d72-9d81-144a63cd8ca6 vasp_virial="-0.06739147543781634 0.07612793158445193 -0.23163244817289302 0.07612793158445193 -0.046635316126155145 0.10878114402884256 -0.23163244817289302 0.10878114402884256 -0.03245508546914297" vasp_energy=-108.06851394 pbc="T T T"
      46       6.04012494       8.12529833       6.07580198       0.00870200      -0.00150500       0.01134800 
      46       4.03158519       4.07581837      -0.02212522      -0.00241400      -0.00112900       0.00164000 
      46      -0.01048109       8.15927619      -0.03638929      -0.00228000      -0.00102600       0.00067500 
      46      -0.01036697       6.11049530       2.01226554      -0.00190600      -0.00078800       0.00067200 
      46      -0.01025285       4.06171441       4.06092038       0.00204500       0.00325300       0.00031300 
      46       4.03131868       6.10456121       2.00706358       0.00324100       0.01013600       0.00863800 
      46      -0.01074760      10.18801903       1.99279951       0.00237800       0.00090000      -0.00009700 
      46      -0.01063348       8.13923814       4.04145434       0.00167400       0.00051500      -0.00059900 
      46      -0.01051937       6.09045725       6.09010918       0.00244200       0.00105400      -0.00076400 
      46       4.03120456       8.15334210      -0.04159125       0.00178400       0.00015400       0.00096300 
      47       4.04448404       8.14159917       4.05119791      -0.01392500      -0.01366400      -0.05480000 
      47       4.04226949       6.09049884       6.09040830      -0.00195100      -0.00529200       0.00539700 
      47      -2.00845065       8.17325758      -2.07043780      -0.00135600       0.00155300       0.00086600 
      47      -2.00833654       6.12447669      -0.02178297      -0.00177900       0.00060100       0.00080200 
      47       4.04204126      10.18806062       1.99309864      -0.00159400      -0.00559900       0.00597000 
      47       4.04123502      10.17414047       6.07571508      -0.00204500       0.00948100       0.01182500 
      47       2.03269527       6.12466051      -0.02221212      -0.00081300      -0.00022500       0.00294100 
      47       2.03280939       4.07587962       2.02644271      -0.00138100      -0.00013800       0.00200900 
      47      -2.00925689       8.15933744       2.01217864      -0.00153100      -0.00060500       0.00186600 
      47       4.04112091      12.22292136       4.02706025      -0.00133400      -0.00021300       0.00196900 
      47       1.98840725       4.04164293       6.09015352       0.00141700      -0.00017300      -0.00064400 
      47       8.03878504       8.10522685       8.10503513       0.00193200       0.00018600      -0.00113200 
      47       1.98806490      10.18798560      -0.05581097       0.00149700       0.00086800      -0.00101200 
      47       1.98817901       8.13920471       1.99284386       0.01046200       0.00040800       0.00677400 
      47       1.98829313       6.09042382       4.04149869       0.00527100       0.00373400      -0.00189800 
      47       6.02910127       6.09008137       4.04204182       0.00083100      -0.00067900      -0.00389000 
      47       1.98703499      10.17353919       4.02777775       0.00084200      -0.00057500      -0.00387800 
      47       1.98714911       8.12475830       6.07643259      -0.00524100      -0.00088800       0.00199600 
      47      -0.02139064       4.07527834      -0.02149461       0.00120500      -0.00029200      -0.00186200 
      47      -0.02127653       2.02649745       2.02716022      -0.00617400      -0.00005500       0.00391000 
30
Lattice="-4.04218039441299 6.132238707319361 -2.062918897303096 2.008653869837365 2.0006990699870815 8.146582031074665 6.050263676866534 6.1123648123583365 -0.0337732296498863" Properties=Z:I:1:pos:R:3:vasp_force:R:3 uuid=6908cca5-77ed-4307-b52e-5713413a96f2 vasp_virial="-0.07282896020294698 0.07252076268589504 -0.24452328105448387 0.07252076268589504 -0.049978315724381786 0.10757351294161864 -0.24452328105448387 0.10757351294161864 -0.03455271550866994" vasp_energy=-108.06849256 pbc="T T T"
      46       6.04012494       8.12529833       6.07580198      -0.01259300      -0.00150300      -0.00955300 
      46       4.03158519       4.07581837      -0.02212522      -0.00260700      -0.00215900       0.00066000 
      46      -0.01048109       8.15927619      -0.03638929      -0.00203900      -0.00135700       0.00032200 
      46      -0.01036697       6.11049530       2.01226554      -0.00261500      -0.00084100       0.00041500 
      46      -0.01025285       4.06171441       4.06092038      -0.00603600      -0.00503300       0.00191800 
      46       4.03131868       6.10456121       2.00706358       0.00328100      -0.00910700      -0.00946300 
      46      -0.01074760      10.18801903       1.99279951       0.00226900       0.00084600       0.00012300 
      46      -0.01063348       8.13923814       4.04145434       0.00171400       0.00080500      -0.00028600 
      46      -0.01051937       6.09045725       6.09010918       0.00266700       0.00054200      -0.00095200 
      46       4.03120456       8.15334210      -0.04159125       0.00147900       0.00029300       0.00014300 
      47       4.03982672       8.13696029       4.03230902       0.01148900       0.01495000       0.05714800 
      47       4.04226949       6.09049884       6.09040830      -0.00102100       0.00693400      -0.00394600 
      47      -2.00845065       8.17325758      -2.07043780      -0.00102900       0.00163300       0.00083200 
      47      -2.00833654       6.12447669      -0.02178297      -0.00155000       0.00065900       0.00079800 
      47       4.04204126      10.18806062       1.99309864      -0.00077000       0.00719400      -0.00348500 
      47       4.04123502      10.17414047       6.07571508      -0.00157200      -0.01099700      -0.00717600 
      47       2.03269527       6.12466051      -0.02221212      -0.00091400      -0.00030800       0.00143800 
      47       2.03280939       4.07587962       2.02644271      -0.00139000      -0.00055100       0.00201500 
      47      -2.00925689       8.15933744       2.01217864      -0.00176500      -0.00044400       0.00232300 
      47       4.04112091      12.22292136       4.02706025      -0.00162200      -0.00041000       0.00227300 
      47       1.98840725       4.04164293       6.09015352       0.00093300      -0.00023700      -0.00077500 
      47       8.03878504       8.10522685       8.10503513       0.00143700       0.00019600      -0.00209500 