  30
   1   1
     5.350202582737861     0.097533655743331    -0.042519676819532
     0.122215706652725     5.322690528463102    -0.018000211263545
    -0.027254469287268     0.024933666743038     5.515046958307604
   1   2
     0.008203275565476    -0.015569840941734     0.005859923415018
    -0.016429071784984     0.004621421057423    -0.021831333017312
     0.005336799002160    -0.023284247918622    -0.059983297099545
   1   3
     0.011072049783722    -0.018263335525729    -0.014699690112545
    -0.019133774134448     0.004222432429536     0.019048532155757
    -0.015211269743851     0.017568377801414     0.000988186309614
   1   4
     0.011068621749013    -0.018268099973123    -0.014709766182748
    -0.019127702159978     0.004222666483915     0.019045249739057
    -0.015204802064733     0.017563596991555     0.001004288166097
   1   5
     0.008198811894571    -0.015576429595266     0.005881488351293
    -0.016435956827519     0.004623209902266    -0.021837070176815
     0.005326664059498    -0.023289444757340    -0.059983608436454
   1   6
     0.080639427704711    -0.003344401184908     0.004453098770700
    -0.002245503519047    -0.684667049765126     0.765219425666793
    -0.005086141166311     0.790927384911400    -0.715268845054854
   1   7
     0.076257059154694     0.003674240402550    -0.025685270609397
     0.007708880496516    -0.697807435301911    -0.780707750751617
    -0.014437524040974    -0.798767181151773    -0.726633765578830
   1   8
    -0.700647384211937    -0.754906791598975     0.000708104437325
    -0.775456391655685    -0.687956258287404    -0.006310629743285
    -0.001753243552891     0.001564113736837     0.096717350146017
   1   9
    -0.033006283315297     0.025941761250525     0.032311226131212
     0.030034496910395    -0.005716071841579     0.022321914378246
     0.033078561547620     0.018969280839933    -0.016862215366883
   1  10
     0.000047103053795     0.003689363543148    -0.007123560766180
     0.021288339409354    -0.005836543402006     0.003833108485244
    -0.010964018117790    -0.014716712415560     0.001230261518425
   1  11
    -0.682797780762339    -0.000911440013460    -0.719592427213739
    -0.003146948059269     0.069564682529124     0.003435427098067
    -0.761282441827604     0.001987935972797    -0.668267738588170
   1  12
    -0.670076725264771    -0.002703887667836     0.735610680328538
    -0.005158622092202     0.076912348525985    -0.002431253676853
     0.775733507017062    -0.002616267503243    -0.675891201638654
   1  13
    -0.023840926557058    -0.002901284933145     0.001532441606485
     0.002936729337500     0.012491018393537     0.001693555402197
    -0.002522789621334     0.002330430078421     0.001904837889804
   1  14
     0.004848628094749     0.019625744840806     0.008722137355579
     0.017688245747892    -0.010866332782946    -0.013484533823506
     0.008609927373301    -0.018575050306017     0.016174383057917
   1  15
    -0.009220111503625     0.018863785338736    -0.001029064476534
     0.010763669962472    -0.041146415810268     0.015428731793153
     0.002394482283009     0.015164952977848    -0.001361165486012
   1  16
    -0.679081543234281     0.694113979277803    -0.004734547880238
     0.696660200998110    -0.659860817045704    -0.006910089898222
    -0.005291370119226    -0.006177077475133     0.049171696516419
   1  17
    -0.047723599229926    -0.016349948950363     0.020895984121020
    -0.031468084853830    -0.032649595814017    -0.015409111228294
     0.014883969198952    -0.007377895050333    -0.045325425683634
   1  18
    -0.047727218680335    -0.016346904661107     0.020887514449430
    -0.031472248953106    -0.032642348039263    -0.015413029990857
     0.014871135835221    -0.007360685231873    -0.045321877030261
   1  19
    -0.679084617338385     0.694082769562673    -0.004724791602090
     0.696617783091796    -0.659780467966772    -0.006902878694510
    -0.005281642925314    -0.006172386973774     0.049163059288743
   1  20
    -0.019221975829723    -0.000230051292809    -0.032458188704408
     0.009071457285750    -0.005986294923987     0.050299496229636
    -0.021135829659890     0.021575093510156    -0.029450304670129
   1  21
    -0.009349650157079     0.018863655948649    -0.001034282664971
     0.010757532264264    -0.041196350506313     0.015425007148746
     0.002484089140636     0.015114607404400    -0.001370645530296
   1  22
     0.004709839379455     0.019612320702267     0.008721675719170
     0.017708960672685    -0.010887915385898    -0.013490604163131
     0.008707921057715    -0.018615403165209     0.016176053674210
   1  23
    -0.023947425711594    -0.002903523280351     0.001552177950421
     0.002937107434630     0.012456289398382     0.001700376357794
    -0.002432740870452     0.002275112940423     0.001916131011402
   1  24
    -0.670273462611904    -0.002688820248970     0.735575263558685
    -0.005153453948292     0.076896946125084    -0.002435500049461
     0.775809503207933    -0.002688247320678    -0.675811278861406
   1  25
    -0.682429273265354    -0.000926850775377    -0.719027479649481
    -0.003115629016376     0.069482095872832     0.003460299047415
    -0.760636505572824     0.001949929175761    -0.667723593612338
   1  26
    -0.700504686262339    -0.754520781813355     0.000696348513301
    -0.775050295551260    -0.687559561944366    -0.006331829822187
    -0.001639702350514     0.001537901731813     0.096704169235225
   1  27
     0.076171651291260     0.003814349729450    -0.025602849627396
     0.007808565829469    -0.697590035189044    -0.780478086151624
    -0.014293168966228    -0.798491635306907    -0.726354498219112
   1  28
     0.080546968686243    -0.003171526216199     0.004357138233714
    -0.002178681021414    -0.684447114984517     0.764908899081355
    -0.005045849364291     0.790567878902905    -0.714941818997057
   1  29
     0.000012867545449     0.003763516225912    -0.007131059422297
     0.021312799071093    -0.005847525880185     0.003834938499796
    -0.010897826495916    -0.014774037508496     0.001213527104254
   1  30
    -0.033044862655818     0.026003747204661     0.032306871833629
     0.030062221849948    -0.005740379333189     0.022319187177078
     0.033134723562856     0.018875685586566    -0.016860205627670
   2   1
     0.008198811894571    -0.015576429595266     0.005881488351293
    -0.016435956827519     0.004623209902266    -0.021837070176815
     0.005326664059498    -0.023289444757340    -0.059983608436454
   2   2
     5.350202582737860     0.097533655743330    -0.042519676819532
     0.122215706652724     5.322690528463102    -0.018000211263546
    -0.027254469287269     0.024933666743038     5.515046958307604
   2   3
     0.008203275565476    -0.015569840941734     0.005859923415018
    -0.016429071784984     0.004621421057423    -0.021831333017312
     0.005336799002160    -0.023284247918622    -0.059983297099545
   2   4
     0.011072049783722    -0.018263335525729    -0.014699690112545
    -0.019133774134448     0.004222432429536     0.019048532155757
    -0.015211269743851     0.017568377801414     0.000988186309614
   2   5
     0.011068621749013    -0.018268099973123    -0.014709766182748
    -0.019127702159978     0.004222666483915     0.019045249739057
    -0.015204802064733     0.017563596991555     0.001004288166097
   2   6
     0.000047103053795     0.003689363543148    -0.007123560766180
     0.021288339409354    -0.005836543402006     0.003833108485244
    -0.010964018117790    -0.014716712415560     0.001230261518425
   2   7
     0.080639427704711    -0.003344401184908     0.004453098770700
    -0.002245503519047    -0.684667049765126     0.765219425666793
    -0.005086141166311     0.790927384911400    -0.715268845054854
   2   8
     0.076257059154694     0.003674240402550    -0.025685270609397
     0.007708880496516    -0.697807435301911    -0.780707750751617
    -0.014437524040974    -0.798767181151773    -0.726633765578830
   2   9
    -0.700647384211937    -0.754906791598975     0.000708104437325
    -0.775456391655685    -0.687956258287404    -0.006310629743285
    -0.001753243552891     0.001564113736837     0.096717350146017
   2  10
    -0.033006283315297     0.025941761250525     0.032311226131212
     0.030034496910395    -0.005716071841579     0.022321914378246
     0.033078561547620     0.018969280839933    -0.016862215366883
   2  11
    -0.009220111503625     0.018863785338736    -0.001029064476534
     0.010763669962472    -0.041146415810268     0.015428731793153
     0.002394482283009     0.015164952977848    -0.001361165486012
   2  12
    -0.682797780762338    -0.000911440013460    -0.719592427213739
    -0.003146948059269     0.069564682529124     0.003435427098067
    -0.761282441827604     0.001987935972797    -0.668267738588170
   2  13
    -0.670076725264771    -0.002703887667836     0.735610680328538
    -0.005158622092202     0.076912348525985    -0.002431253676853
     0.775733507017062    -0.002616267503243    -0.675891201638654
   2  14
    -0.023840926557058    -0.002901284933145     0.001532441606485
     0.002936729337500     0.012491018393537     0.001693555402197
    -0.002522789621334     0.002330430078421     0.001904837889804
   2  15
     0.004848628094749     0.019625744840806     0.008722137355579
     0.017688245747892    -0.010866332782946    -0.013484533823506
     0.008609927373301    -0.018575050306017     0.016174383057917
   2  16
    -0.019221975829723    -0.000230051292809    -0.032458188704408
     0.009071457285750    -0.005986294923987     0.050299496229636
    -0.021135829659890     0.021575093510156    -0.029450304670129
   2  17
    -0.679081543234281     0.694113979277803    -0.004734547880238
     0.696660200998110    -0.659860817045704    -0.006910089898222
    -0.005291370119226    -0.006177077475133     0.049171696516419
   2  18
    -0.047723599229926    -0.016349948950363     0.020895984121020
    -0.031468084853830    -0.032649595814017    -0.015409111228294
     0.014883969198952    -0.007377895050333    -0.045325425683634
   2  19
    -0.047727218680335    -0.016346904661107     0.020887514449430
    -0.031472248953106    -0.032642348039263    -0.015413029990857
     0.014871135835221    -0.007360685231873    -0.045321877030261
   2  20
    -0.679084617338386     0.694082769562673    -0.004724791602090
     0.696617783091796    -0.659780467966772    -0.006902878694510
    -0.005281642925314    -0.006172386973774     0.049163059288743
   2  21
    -0.682429273265354    -0.000926850775377    -0.719027479649480
    -0.003115629016376     0.069482095872832     0.003460299047415
    -0.760636505572824     0.001949929175761    -0.667723593612338
   2  22
    -0.009349650157079     0.018863655948649    -0.001034282664971
     0.010757532264264    -0.041196350506313     0.015425007148746
     0.002484089140636     0.015114607404400    -0.001370645530296
   2  23
     0.004709839379455     0.019612320702267     0.008721675719170
     0.017708960672685    -0.010887915385898    -0.013490604163131
     0.008707921057715    -0.018615403165209     0.016176053674210
   2  24
    -0.023947425711594    -0.002903523280351     0.001552177950421
     0.002937107434630     0.012456289398382     0.001700376357794
    -0.002432740870452     0.002275112940423     0.001916131011402
   2  25
    -0.670273462611904    -0.002688820248970     0.735575263558685
    -0.005153453948292     0.076896946125084    -0.002435500049461
     0.775809503207933    -0.002688247320678    -0.675811278861406
   2  26
    -0.033044862655818     0.026003747204661     0.032306871833629
     0.030062221849948    -0.005740379333189     0.022319187177078
     0.033134723562856     0.018875685586566    -0.016860205627670
   2  27
    -0.700504686262338    -0.754520781813354     0.000696348513301
    -0.775050295551260    -0.687559561944366    -0.006331829822187
    -0.001639702350513     0.001537901731813     0.096704169235225
   2  28
     0.076171651291260     0.003814349729450    -0.025602849627396
     0.007808565829469    -0.697590035189044    -0.780478086151624
    -0.014293168966228    -0.798491635306907    -0.726354498219111
   2  29
     0.080546968686243    -0.003171526216199     0.004357138233714
    -0.002178681021414    -0.684447114984517     0.764908899081355
    -0.005045849364291     0.790567878902905    -0.714941818997057
   2  30
     0.000012867545449     0.003763516225912    -0.007131059422297
     0.021312799071093    -0.005847525880185     0.003834938499796
    -0.010897826495916    -0.014774037508496     0.001213527104254
   3   1
     0.011068621749013    -0.018268099973123    -0.014709766182748
    -0.019127702159978     0.004222666483915     0.019045249739057
    -0.015204802064733     0.017563596991555     0.001004288166097
   3   2
     0.008198811894571    -0.015576429595266     0.005881488351293
    -0.016435956827519     0.004623209902266    -0.021837070176815
     0.005326664059498    -0.023289444757340    -0.059983608436454
   3   3
     5.350202582737860     0.097533655743330    -0.042519676819532
     0.122215706652724     5.322690528463102    -0.018000211263546
    -0.027254469287269     0.024933666743038     5.515046958307604
   3   4
     0.008203275565476    -0.015569840941734     0.005859923415018
    -0.016429071784984     0.004621421057423    -0.021831333017312
     0.005336799002160    -0.023284247918622    -0.059983297099545
   3   5
     0.011072049783722    -0.018263335525729    -0.014699690112545
    -0.019133774134448     0.004222432429536     0.019048532155757
    -0.015211269743851     0.017568377801414     0.000988186309614
   3   6
    -0.033006283315297     0.025941761250525     0.032311226131212
     0.030034496910395    -0.005716071841579     0.022321914378246
     0.033078561547620     0.018969280839933    -0.016862215366883
   3   7
     0.000047103053795     0.003689363543148    -0.007123560766180
     0.021288339409354    -0.005836543402006     0.003833108485244
    -0.010964018117790    -0.014716712415560     0.001230261518425
   3   8
     0.080639427704711    -0.003344401184908     0.004453098770700
    -0.002245503519047    -0.684667049765126     0.765219425666793
    -0.005086141166311     0.790927384911400    -0.715268845054854
   3   9
     0.076257059154694     0.003674240402550    -0.025685270609397
     0.007708880496516    -0.697807435301911    -0.780707750751617
    -0.014437524040974    -0.798767181151773    -0.726633765578830
   3  10
    -0.700647384211937    -0.754906791598975     0.000708104437325
    -0.775456391655685    -0.687956258287404    -0.006310629743285
    -0.001753243552891     0.001564113736837     0.096717350146017
   3  11
     0.004848628094749     0.019625744840806     0.008722137355579
     0.017688245747892    -0.010866332782946    -0.013484533823506
     0.008609927373301    -0.018575050306017     0.016174383057917
   3  12
    -0.009220111503625     0.018863785338736    -0.001029064476534
     0.010763669962472    -0.041146415810268     0.015428731793153
     0.002394482283009     0.015164952977848    -0.001361165486012
   3  13
    -0.682797780762338    -0.000911440013460    -0.719592427213739
    -0.003146948059269     0.069564682529124     0.003435427098067
    -0.761282441827604     0.001987935972797    -0.668267738588170
   3  14
    -0.670076725264771    -0.002703887667836     0.735610680328538
    -0.005158622092202     0.076912348525985    -0.002431253676853
     0.775733507017062    -0.002616267503243    -0.675891201638654
   3  15
    -0.023840926557058    -0.002901284933145     0.001532441606485
     0.002936729337500     0.012491018393537     0.001693555402197
    -0.002522789621334     0.002330430078421     0.001904837889804
   3  16
    -0.679084617338386     0.694082769562673    -0.004724791602090
     0.696617783091796    -0.659780467966772    -0.006902878694510
    -0.005281642925314    -0.006172386973774     0.049163059288743
   3  17
    -0.019221975829723    -0.000230051292809    -0.032458188704408
     0.009071457285750    -0.005986294923987     0.050299496229636
    -0.021135829659890     0.021575093510156    -0.029450304670129
   3  18
    -0.679081543234281     0.694113979277803    -0.004734547880238
     0.696660200998110    -0.659860817045704    -0.006910089898222
    -0.005291370119226    -0.006177077475133     0.049171696516419
   3  19
    -0.047723599229926    -0.016349948950363     0.020895984121020
    -0.031468084853830    -0.032649595814017    -0.015409111228294
     0.014883969198952    -0.007377895050333    -0.045325425683634
   3  20
    -0.047727218680335    -0.016346904661107     0.020887514449430
    -0.031472248953106    -0.032642348039263    -0.015413029990857
     0.014871135835221    -0.007360685231873    -0.045321877030261
   3  21
    -0.670273462611904    -0.002688820248970     0.735575263558685
    -0.005153453948292     0.076896946125084    -0.002435500049461
     0.775809503207933    -0.002688247320678    -0.675811278861406
   3  22
    -0.682429273265354    -0.000926850775377    -0.719027479649480
    -0.003115629016376     0.069482095872832     0.003460299047415
    -0.760636505572824     0.001949929175761    -0.667723593612338
   3  23
    -0.009349650157079     0.018863655948649    -0.001034282664971
     0.010757532264264    -0.041196350506313     0.015425007148746
     0.002484089140636     0.015114607404400    -0.001370645530296
   3  24
     0.004709839379455     0.019612320702267     0.008721675719170
     0.017708960672685    -0.010887915385898    -0.013490604163131
     0.008707921057715    -0.018615403165209     0.016176053674210
   3  25
    -0.023947425711594    -0.002903523280351     0.001552177950421
     0.002937107434630     0.012456289398382     0.001700376357794
    -0.002432740870452     0.002275112940423     0.001916131011402
   3  26
     0.000012867545449     0.003763516225912    -0.007131059422297
     0.021312799071093    -0.005847525880185     0.003834938499796
    -0.010897826495916    -0.014774037508496     0.001213527104254
   3  27
    -0.033044862655818     0.026003747204661     0.032306871833629
     0.030062221849948    -0.005740379333189     0.022319187177078
     0.033134723562856     0.018875685586566    -0.016860205627670
   3  28
    -0.700504686262338    -0.754520781813354     0.000696348513301
    -0.775050295551260    -0.687559561944366    -0.006331829822187
    -0.001639702350513     0.001537901731813     0.096704169235225
   3  29
     0.076171651291260     0.003814349729450    -0.025602849627396
     0.007808565829469    -0.697590035189044    -0.780478086151624
    -0.014293168966228    -0.798491635306907    -0.726354498219111
   3  30
     0.080546968686243    -0.003171526216199     0.004357138233714
    -0.002178681021414    -0.684447114984517     0.764908899081355
    -0.005045849364291     0.790567878902905    -0.714941818997057
   4   1
     0.011072049783722    -0.018263335525729    -0.014699690112545
    -0.019133774134448     0.004222432429536     0.019048532155757
    -0.015211269743851     0.017568377801414     0.000988186309614
   4   2
     0.011068621749013    -0.018268099973123    -0.014709766182748
    -0.019127702159978     0.004222666483915     0.019045249739057
    -0.015204802064733     0.017563596991555     0.001004288166097
   4   3
     0.008198811894571    -0.015576429595266     0.005881488351293
    -0.016435956827519     0.004623209902266    -0.021837070176815
     0.005326664059498    -0.023289444757340    -0.059983608436454
   4   4
     5.350202582737860     0.097533655743330    -0.042519676819532
     0.122215706652724     5.322690528463102    -0.018000211263546
    -0.027254469287269     0.024933666743038     5.515046958307604
   4   5
     0.008203275565476    -0.015569840941734     0.005859923415018
    -0.016429071784984     0.004621421057423    -0.021831333017312
     0.005336799002160    -0.023284247918622    -0.059983297099545
   4   6
    -0.700647384211937    -0.754906791598975     0.000708104437325
    -0.775456391655685    -0.687956258287404    -0.006310629743285
    -0.001753243552891     0.001564113736837     0.096717350146017
   4   7
    -0.033006283315297     0.025941761250525     0.032311226131212
     0.030034496910395    -0.005716071841579     0.022321914378246
     0.033078561547620     0.018969280839933    -0.016862215366883
   4   8
     0.000047103053795     0.003689363543148    -0.007123560766180
     0.021288339409354    -0.005836543402006     0.003833108485244
    -0.010964018117790    -0.014716712415560     0.001230261518425
   4   9
     0.080639427704711    -0.003344401184908     0.004453098770700
    -0.002245503519047    -0.684667049765126     0.765219425666793
    -0.005086141166311     0.790927384911400    -0.715268845054854
   4  10
     0.076257059154694     0.003674240402550    -0.025685270609397
     0.007708880496516    -0.697807435301911    -0.780707750751617
    -0.014437524040974    -0.798767181151773    -0.726633765578830
   4  11
    -0.023840926557058    -0.002901284933145     0.001532441606485
     0.002936729337500     0.012491018393537     0.001693555402197
    -0.002522789621334     0.002330430078421     0.001904837889804
   4  12
     0.004848628094749     0.019625744840806     0.008722137355579
     0.017688245747892    -0.010866332782946    -0.013484533823506
     0.008609927373301    -0.018575050306017     0.016174383057917
   4  13
    -0.009220111503625     0.018863785338736    -0.001029064476534
     0.010763669962472    -0.041146415810268     0.015428731793153
     0.002394482283009     0.015164952977848    -0.001361165486012
   4  14
    -0.682797780762338    -0.000911440013460    -0.719592427213739
    -0.003146948059269     0.069564682529124     0.003435427098067
    -0.761282441827604     0.001987935972797    -0.668267738588170
   4  15
    -0.670076725264771    -0.002703887667836     0.735610680328538
    -0.005158622092202     0.076912348525985    -0.002431253676853
     0.775733507017062    -0.002616267503243    -0.675891201638654
   4  16
    -0.047727218680335    -0.016346904661107     0.020887514449430
    -0.031472248953106    -0.032642348039263    -0.015413029990857
     0.014871135835221    -0.007360685231873    -0.045321877030261
   4  17
    -0.679084617338386     0.694082769562673    -0.004724791602090
     0.696617783091796    -0.659780467966772    -0.006902878694510
    -0.005281642925314    -0.006172386973774     0.049163059288743
   4  18
    -0.019221975829723    -0.000230051292809    -0.032458188704408
     0.009071457285750    -0.005986294923987     0.050299496229636
    -0.021135829659890     0.021575093510156    -0.029450304670129
   4  19
    -0.679081543234281     0.694113979277803    -0.004734547880238
     0.696660200998110    -0.659860817045704    -0.006910089898222
    -0.005291370119226    -0.006177077475133     0.049171696516419
   4  20
    -0.047723599229926    -0.016349948950363     0.020895984121020
    -0.031468084853830    -0.032649595814017    -0.015409111228294
     0.014883969198952    -0.007377895050333    -0.045325425683634
   4  21
    -0.023947425711594    -0.002903523280351     0.001552177950421
     0.002937107434630     0.012456289398382     0.001700376357794
    -0.002432740870452     0.002275112940423     0.001916131011402
   4  22
    -0.670273462611904    -0.002688820248970     0.735575263558685
    -0.005153453948292     0.076896946125084    -0.002435500049461
     0.775809503207933    -0.002688247320678    -0.675811278861406
   4  23
    -0.682429273265354    -0.000926850775377    -0.719027479649480
    -0.003115629016376     0.069482095872832     0.003460299047415
    -0.760636505572824     0.001949929175761    -0.667723593612338
   4  24
    -0.009349650157079     0.018863655948649    -0.001034282664971
     0.010757532264264    -0.041196350506313     0.015425007148746
     0.002484089140636     0.015114607404400    -0.001370645530296
   4  25
     0.004709839379455     0.019612320702267     0.008721675719170
     0.017708960672685    -0.010887915385898    -0.013490604163131
     0.008707921057715    -0.018615403165209     0.016176053674210
   4  26
     0.080546968686243    -0.003171526216199     0.004357138233714
    -0.002178681021414    -0.684447114984517     0.764908899081355
    -0.005045849364291     0.790567878902905    -0.714941818997057
   4  27
     0.000012867545449     0.003763516225912    -0.007131059422297
     0.021312799071093    -0.005847525880185     0.003834938499796
    -0.010897826495916    -0.014774037508496     0.001213527104254
   4  28
    -0.033044862655818     0.026003747204661     0.032306871833629
     0.030062221849948    -0.005740379333189     0.022319187177078
     0.033134723562856     0.018875685586566    -0.016860205627670
   4  29
    -0.700504686262338    -0.754520781813354     0.000696348513301
    -0.775050295551260    -0.687559561944366    -0.006331829822187
    -0.001639702350513     0.001537901731813     0.096704169235225
   4  30
     0.076171651291260     0.003814349729450    -0.025602849627396
     0.007808565829469    -0.697590035189044    -0.780478086151624
    -0.014293168966228    -0.798491635306907    -0.726354498219111
   5   1
     0.008203275565476    -0.015569840941734     0.005859923415018
    -0.016429071784984     0.004621421057423    -0.021831333017312
     0.005336799002160    -0.023284247918622    -0.059983297099545
   5   2
     0.011072049783722    -0.018263335525729    -0.014699690112545
    -0.019133774134448     0.004222432429536     0.019048532155757
    -0.015211269743851     0.017568377801414     0.000988186309614
   5   3
     0.011068621749013    -0.018268099973123    -0.014709766182748
    -0.019127702159978     0.004222666483915     0.019045249739057
    -0.015204802064733     0.017563596991555     0.001004288166097
   5   4
     0.008198811894571    -0.015576429595266     0.005881488351293
    -0.016435956827519     0.004623209902266    -0.021837070176815
     0.005326664059498    -0.023289444757340    -0.059983608436454
   5   5
     5.350202582737860     0.097533655743330    -0.042519676819532
     0.122215706652724     5.322690528463102    -0.018000211263546
    -0.027254469287269     0.024933666743038     5.515046958307604
   5   6
     0.076257059154694     0.003674240402550    -0.025685270609397
     0.007708880496516    -0.697807435301911    -0.780707750751617
    -0.014437524040974    -0.798767181151773    -0.726633765578830
   5   7
    -0.700647384211937    -0.754906791598975     0.000708104437325
    -0.775456391655685    -0.687956258287404    -0.006310629743285
    -0.001753243552891     0.001564113736837     0.096717350146017
   5   8
    -0.033006283315297     0.025941761250525     0.032311226131212
     0.030034496910395    -0.005716071841579     0.022321914378246
     0.033078561547620     0.018969280839933    -0.016862215366883
   5   9
     0.000047103053795     0.003689363543148    -0.007123560766180
     0.021288339409354    -0.005836543402006     0.003833108485244
    -0.010964018117790    -0.014716712415560     0.001230261518425
   5  10
     0.080639427704711    -0.003344401184908     0.004453098770700
    -0.002245503519047    -0.684667049765126     0.765219425666793
    -0.005086141166311     0.790927384911400    -0.715268845054854
   5  11
    -0.670076725264771    -0.002703887667836     0.735610680328538
    -0.005158622092202     0.076912348525985    -0.002431253676853
     0.775733507017062    -0.002616267503243    -0.675891201638654
   5  12
    -0.023840926557058    -0.002901284933145     0.001532441606485
     0.002936729337500     0.012491018393537     0.001693555402197
    -0.002522789621334     0.002330430078421     0.001904837889804
   5  13
     0.004848628094749     0.019625744840806     0.008722137355579
     0.017688245747892    -0.010866332782946    -0.013484533823506
     0.008609927373301    -0.018575050306017     0.016174383057917
   5  14
    -0.009220111503625     0.018863785338736    -0.001029064476534
     0.010763669962472    -0.041146415810268     0.015428731793153
     0.002394482283009     0.015164952977848    -0.001361165486012
   5  15
    -0.682797780762338    -0.000911440013460    -0.719592427213739
    -0.003146948059269     0.069564682529124     0.003435427098067
    -0.761282441827604     0.001987935972797    -0.668267738588170
   5  16
    -0.047723599229926    -0.016349948950363     0.020895984121020
    -0.031468084853830    -0.032649595814017    -0.015409111228294
     0.014883969198952    -0.007377895050333    -0.045325425683634
   5  17
    -0.047727218680335    -0.016346904661107     0.020887514449430
    -0.031472248953106    -0.032642348039263    -0.015413029990857
     0.014871135835221    -0.007360685231873    -0.045321877030261
   5  18
    -0.679084617338386     0.694082769562673    -0.004724791602090
     0.696617783091796    -0.659780467966772    -0.006902878694510
    -0.005281642925314    -0.006172386973774     0.049163059288743
   5  19
    -0.019221975829723    -0.000230051292809    -0.032458188704408
     0.009071457285750    -0.005986294923987     0.050299496229636
    -0.021135829659890     0.021575093510156    -0.029450304670129
   5  20
    -0.679081543234281     0.694113979277803    -0.004734547880238
     0.696660200998110    -0.659860817045704    -0.006910089898222
    -0.005291370119226    -0.006177077475133     0.049171696516419
   5  21
     0.004709839379455     0.019612320702267     0.008721675719170
     0.017708960672685    -0.010887915385898    -0.013490604163131
     0.008707921057715    -0.018615403165209     0.016176053674210
   5  22
    -0.023947425711594    -0.002903523280351     0.001552177950421
     0.002937107434630     0.012456289398382     0.001700376357794
    -0.002432740870452     0.002275112940423     0.001916131011402
   5  23
    -0.670273462611904    -0.002688820248970     0.735575263558685
    -0.005153453948292     0.076896946125084    -0.002435500049461