  30
   1   1
     6.645755574100773     0.018113961311791     0.019094277568262
     0.037997673033808     7.433976201152684     0.019971060649259
     0.043116073452376     0.029521649654985     6.873045534098362
   1   2
    -0.005534370818486     0.003119771508825     0.010860381105675
    -0.026594669955789     0.014573703027205    -0.028962101406356
     0.002669527782645     0.012578976298400    -0.114591162249317
   1   3
    -0.073362469335669     0.035162802394260    -0.003190191972084
    -0.023504899571990     0.037988073985300    -0.011713491460211
    -0.004483041692542     0.010442312851613     0.049541284383319
   1   4
    -0.073409186074188    -0.022851214034863    -0.003907792244729
     0.034518422536327     0.037969004943710     0.010723048789692
    -0.003914825701104    -0.012005206876276     0.049426936607474
   1   5
    -0.005440459912502    -0.025886464862391     0.003572588794069
     0.002501084741472     0.014645458566733     0.012915128269937
     0.009993250242738    -0.029309576661644    -0.114533767994137
   1   6
     0.027052955807747     0.006801611831695     0.009994205333516
    -0.009565934453023    -0.058086334879479     0.019261562297595
     0.018681274413864     0.021529458630708    -0.023820190263529
   1   7
     0.018714862311075    -0.014082033921280     0.020368265434571
     0.010078875263001     0.018908051440001    -0.035201861020350
     0.000361638027447    -0.008179276587489    -0.025607579607511
   1   8
    -0.738696575834418     0.948717012056065     0.003414982135056
     0.823972034272580    -0.768631395774829     0.017039469497230
     0.003775156512645    -0.005123989980297     0.010141729295787
   1   9
    -0.001855558202359    -0.013803896263206    -0.050294108960524
    -0.014896008470475    -0.025469339914151    -0.015041495305475
    -0.011434996484599    -0.002030692222941    -0.042485253302411
   1  10
    -0.740804278124341    -0.926656218426123     0.011937070094911
    -0.813484826069695    -0.728787498502108     0.008639285725594
    -0.011851152254113    -0.013502041022221    -0.014805954155509
   1  11
     0.071399667370335    -0.004622656881957    -0.001163204148974
    -0.006569358125951    -0.996801308682426    -0.935866729293686
     0.013292710112992    -1.093147422000331    -0.827755253058316
   1  12
    -0.014761903433762     0.007124261298982    -0.015672746840896
     0.036175882880621    -0.022988922811751     0.016309842337376
    -0.001838826839536    -0.041584665267247     0.005766975393391
   1  13
    -0.046116858929306     0.002394402380332     0.030509707083517
     0.017057285574355    -0.012852500643818    -0.000481165722225
    -0.016354859563221     0.035298563140628    -0.016724930224805
   1  14
    -0.015482144795512    -0.008717264965548    -0.008858649971387
    -0.036126283952557    -0.017047989695445    -0.013689244710571
    -0.015114563165241    -0.017011150006626     0.013127341253279
   1  15
     0.055178827891751    -0.002352530507958    -0.003118372264010
    -0.016622876403322    -1.036154452662946     0.940940084766596
     0.009907505879405     1.123641776777061    -0.835220986117854
   1  16
     0.022154550292926     0.005403005867368    -0.005014534174840
     0.004774820892468     0.026256364663887     0.026150272181224
    -0.005779445394410     0.025857722833381     0.022722902102608
   1  17
    -0.810748067279546     0.008352199046266     0.858871393828885
     0.007831620030685     0.049327331690229    -0.058214513321848
     0.857954109909833    -0.058329047749955    -0.826046957937081
   1  18
    -0.857824815086227     0.008447978902216    -0.870318690403482
     0.007858026821819     0.100250080680295     0.046499646501691
    -0.871202602411945     0.046289941352127    -0.789233689942553
   1  19
    -0.837370296109673    -0.001425470146845    -0.863419715344629
    -0.002495443832335     0.057219614297385    -0.027895485061401
    -0.864460850280571    -0.028076417915526    -0.815616137355253
   1  20
    -0.802551269411557    -0.020081501038950     0.857234761800358
    -0.021073574275139     0.120611899846100     0.008968900141333
     0.856297823375362     0.008481871097866    -0.836330333346807
   1  21
    -0.978495380238903    -1.169021955024633    -0.000239204077251
    -1.163046636934646    -0.978826535862255     0.002616372111532
    -0.001273559446479     0.001308340457571     0.139643172149705
   1  22
    -0.033147299105312    -0.014919203863817    -0.042252767183740
    -0.023775078198354    -0.020485591302845    -0.003870743208290
    -0.041821757421207     0.000154388800864    -0.041476021931647
   1  23
    -1.002821065778860     1.181157714180215     0.008695763524505
     1.183697754754656    -0.987742433103202     0.003703610538759
     0.000998556484771     0.000982678478890     0.151587135601305
   1  24
    -0.017657887272713     0.013201890420956     0.018592587996628
     0.007721809620719    -0.001482456919878    -0.019047205520903
     0.018001853929378    -0.014455667196398    -0.009813128915252
   1  25
    -0.000936754235485    -0.010502216770946     0.016863831761058
    -0.009182465358041    -0.059127280153438     0.011275991612795
     0.019538147772574     0.007292977175111    -0.013998220344817
   1  26
    -0.015141648071556    -0.018060030081740    -0.001663835093666
    -0.019462655254296    -0.023986532484527    -0.016630678946693
    -0.022349801605312    -0.016595295711329     0.003779327787524
   1  27
    -0.042926944249167     0.008791585348265     0.012420533746764
     0.014660365492417    -0.008778818456806     0.025000225508497
     0.028258860144915     0.009049595303407    -0.004653099700667
   1  28
    -0.010102877894228     0.019818045035283    -0.005987298018438
     0.013429615201538    -0.029723071788882    -0.022570114350344
    -0.015534446116240    -0.005507367737324    -0.005230556145291
   1  29
     0.144604659808811    -0.006328722736000    -0.010135902156683
    -0.002646746772243    -1.051407919828243    -1.133982420789649
     0.004958912460636    -1.194719652930506    -0.978923219090945
   1  30
     0.140328618344037    -0.007295981864344     0.002804366927229
    -0.013226912685141    -1.083344399430276     1.153150449131841
    -0.000390369988614     1.207147227785184    -0.981915846239281
   2   1
    -0.005440459912502    -0.025886464862391     0.003572588794069
     0.002501084741472     0.014645458566733     0.012915128269937
     0.009993250242738    -0.029309576661644    -0.114533767994137
   2   2
     6.645755574100772     0.018113961311792     0.019094277568262
     0.037997673033809     7.433976201152682     0.019971060649259
     0.043116073452375     0.029521649654985     6.873045534098362
   2   3
    -0.005534370818486     0.003119771508825     0.010860381105675
    -0.026594669955789     0.014573703027205    -0.028962101406356
     0.002669527782645     0.012578976298400    -0.114591162249317
   2   4
    -0.073362469335669     0.035162802394260    -0.003190191972084
    -0.023504899571990     0.037988073985300    -0.011713491460211
    -0.004483041692542     0.010442312851613     0.049541284383319
   2   5
    -0.073409186074188    -0.022851214034863    -0.003907792244729
     0.034518422536327     0.037969004943710     0.010723048789692
    -0.003914825701104    -0.012005206876276     0.049426936607474
   2   6
    -0.740804278124341    -0.926656218426123     0.011937070094911
    -0.813484826069695    -0.728787498502107     0.008639285725594
    -0.011851152254113    -0.013502041022221    -0.014805954155509
   2   7
     0.027052955807747     0.006801611831695     0.009994205333516
    -0.009565934453023    -0.058086334879479     0.019261562297595
     0.018681274413864     0.021529458630708    -0.023820190263529
   2   8
     0.018714862311075    -0.014082033921280     0.020368265434571
     0.010078875263001     0.018908051440001    -0.035201861020350
     0.000361638027447    -0.008179276587489    -0.025607579607511
   2   9
    -0.738696575834418     0.948717012056065     0.003414982135056
     0.823972034272579    -0.768631395774829     0.017039469497230
     0.003775156512645    -0.005123989980297     0.010141729295787
   2  10
    -0.001855558202359    -0.013803896263206    -0.050294108960524
    -0.014896008470475    -0.025469339914151    -0.015041495305475
    -0.011434996484599    -0.002030692222941    -0.042485253302411
   2  11
     0.055178827891751    -0.002352530507958    -0.003118372264010
    -0.016622876403323    -1.036154452662945     0.940940084766596
     0.009907505879405     1.123641776777061    -0.835220986117854
   2  12
     0.071399667370335    -0.004622656881957    -0.001163204148974
    -0.006569358125951    -0.996801308682426    -0.935866729293686
     0.013292710112992    -1.093147422000331    -0.827755253058316
   2  13
    -0.014761903433762     0.007124261298982    -0.015672746840896
     0.036175882880621    -0.022988922811751     0.016309842337376
    -0.001838826839536    -0.041584665267247     0.005766975393391
   2  14
    -0.046116858929306     0.002394402380332     0.030509707083517
     0.017057285574355    -0.012852500643818    -0.000481165722225
    -0.016354859563221     0.035298563140628    -0.016724930224805
   2  15
    -0.015482144795512    -0.008717264965548    -0.008858649971387
    -0.036126283952557    -0.017047989695445    -0.013689244710571
    -0.015114563165241    -0.017011150006626     0.013127341253279
   2  16
    -0.802551269411557    -0.020081501038950     0.857234761800358
    -0.021073574275139     0.120611899846100     0.008968900141333
     0.856297823375362     0.008481871097866    -0.836330333346807
   2  17
     0.022154550292926     0.005403005867368    -0.005014534174840
     0.004774820892468     0.026256364663887     0.026150272181224
    -0.005779445394410     0.025857722833381     0.022722902102608
   2  18
    -0.810748067279546     0.008352199046266     0.858871393828885
     0.007831620030685     0.049327331690229    -0.058214513321848
     0.857954109909833    -0.058329047749955    -0.826046957937081
   2  19
    -0.857824815086227     0.008447978902216    -0.870318690403482
     0.007858026821819     0.100250080680295     0.046499646501691
    -0.871202602411945     0.046289941352127    -0.789233689942553
   2  20
    -0.837370296109672    -0.001425470146845    -0.863419715344629
    -0.002495443832335     0.057219614297385    -0.027895485061401
    -0.864460850280571    -0.028076417915526    -0.815616137355253
   2  21
    -0.000936754235485    -0.010502216770946     0.016863831761058
    -0.009182465358041    -0.059127280153438     0.011275991612795
     0.019538147772574     0.007292977175111    -0.013998220344817
   2  22
    -0.978495380238903    -1.169021955024633    -0.000239204077251
    -1.163046636934646    -0.978826535862254     0.002616372111532
    -0.001273559446479     0.001308340457571     0.139643172149705
   2  23
    -0.033147299105312    -0.014919203863817    -0.042252767183740
    -0.023775078198354    -0.020485591302845    -0.003870743208290
    -0.041821757421207     0.000154388800864    -0.041476021931647
   2  24
    -1.002821065778860     1.181157714180214     0.008695763524505
     1.183697754754655    -0.987742433103202     0.003703610538759
     0.000998556484771     0.000982678478890     0.151587135601305
   2  25
    -0.017657887272713     0.013201890420956     0.018592587996628
     0.007721809620719    -0.001482456919878    -0.019047205520903
     0.018001853929378    -0.014455667196398    -0.009813128915252
   2  26
     0.140328618344037    -0.007295981864344     0.002804366927229
    -0.013226912685141    -1.083344399430276     1.153150449131841
    -0.000390369988614     1.207147227785183    -0.981915846239281
   2  27
    -0.015141648071556    -0.018060030081740    -0.001663835093666
    -0.019462655254296    -0.023986532484527    -0.016630678946693
    -0.022349801605312    -0.016595295711329     0.003779327787524
   2  28
    -0.042926944249167     0.008791585348265     0.012420533746764
     0.014660365492417    -0.008778818456806     0.025000225508497
     0.028258860144915     0.009049595303407    -0.004653099700667
   2  29
    -0.010102877894228     0.019818045035283    -0.005987298018438
     0.013429615201538    -0.029723071788882    -0.022570114350344
    -0.015534446116240    -0.005507367737324    -0.005230556145291
   2  30
     0.144604659808811    -0.006328722736000    -0.010135902156683
    -0.002646746772243    -1.051407919828243    -1.133982420789649
     0.004958912460636    -1.194719652930506    -0.978923219090945
   3   1
    -0.073409186074188    -0.022851214034863    -0.003907792244729
     0.034518422536327     0.037969004943710     0.010723048789692
    -0.003914825701104    -0.012005206876276     0.049426936607474
   3   2
    -0.005440459912502    -0.025886464862391     0.003572588794069
     0.002501084741472     0.014645458566733     0.012915128269937
     0.009993250242738    -0.029309576661644    -0.114533767994137
   3   3
     6.645755574100772     0.018113961311792     0.019094277568262
     0.037997673033809     7.433976201152682     0.019971060649259
     0.043116073452375     0.029521649654985     6.873045534098362
   3   4
    -0.005534370818486     0.003119771508825     0.010860381105675
    -0.026594669955789     0.014573703027205    -0.028962101406356
     0.002669527782645     0.012578976298400    -0.114591162249317
   3   5
    -0.073362469335669     0.035162802394260    -0.003190191972084
    -0.023504899571990     0.037988073985300    -0.011713491460211
    -0.004483041692542     0.010442312851613     0.049541284383319
   3   6
    -0.001855558202359    -0.013803896263206    -0.050294108960524
    -0.014896008470475    -0.025469339914151    -0.015041495305475
    -0.011434996484599    -0.002030692222941    -0.042485253302411
   3   7
    -0.740804278124341    -0.926656218426123     0.011937070094911
    -0.813484826069695    -0.728787498502107     0.008639285725594
    -0.011851152254113    -0.013502041022221    -0.014805954155509
   3   8
     0.027052955807747     0.006801611831695     0.009994205333516
    -0.009565934453023    -0.058086334879479     0.019261562297595
     0.018681274413864     0.021529458630708    -0.023820190263529
   3   9
     0.018714862311075    -0.014082033921280     0.020368265434571
     0.010078875263001     0.018908051440001    -0.035201861020350
     0.000361638027447    -0.008179276587489    -0.025607579607511
   3  10
    -0.738696575834418     0.948717012056065     0.003414982135056
     0.823972034272579    -0.768631395774829     0.017039469497230
     0.003775156512645    -0.005123989980297     0.010141729295787
   3  11
    -0.015482144795512    -0.008717264965548    -0.008858649971387
    -0.036126283952557    -0.017047989695445    -0.013689244710571
    -0.015114563165241    -0.017011150006626     0.013127341253279
   3  12
     0.055178827891751    -0.002352530507958    -0.003118372264010
    -0.016622876403323    -1.036154452662945     0.940940084766596
     0.009907505879405     1.123641776777061    -0.835220986117854
   3  13
     0.071399667370335    -0.004622656881957    -0.001163204148974
    -0.006569358125951    -0.996801308682426    -0.935866729293686
     0.013292710112992    -1.093147422000331    -0.827755253058316
   3  14
    -0.014761903433762     0.007124261298982    -0.015672746840896
     0.036175882880621    -0.022988922811751     0.016309842337376
    -0.001838826839536    -0.041584665267247     0.005766975393391
   3  15
    -0.046116858929306     0.002394402380332     0.030509707083517
     0.017057285574355    -0.012852500643818    -0.000481165722225
    -0.016354859563221     0.035298563140628    -0.016724930224805
   3  16
    -0.837370296109672    -0.001425470146845    -0.863419715344629
    -0.002495443832335     0.057219614297385    -0.027895485061401
    -0.864460850280571    -0.028076417915526    -0.815616137355253
   3  17
    -0.802551269411557    -0.020081501038950     0.857234761800358
    -0.021073574275139     0.120611899846100     0.008968900141333
     0.856297823375362     0.008481871097866    -0.836330333346807
   3  18
     0.022154550292926     0.005403005867368    -0.005014534174840
     0.004774820892468     0.026256364663887     0.026150272181224
    -0.005779445394410     0.025857722833381     0.022722902102608
   3  19
    -0.810748067279546     0.008352199046266     0.858871393828885
     0.007831620030685     0.049327331690229    -0.058214513321848
     0.857954109909833    -0.058329047749955    -0.826046957937081
   3  20
    -0.857824815086227     0.008447978902216    -0.870318690403482
     0.007858026821819     0.100250080680295     0.046499646501691
    -0.871202602411945     0.046289941352127    -0.789233689942553
   3  21
    -0.017657887272713     0.013201890420956     0.018592587996628
     0.007721809620719    -0.001482456919878    -0.019047205520903
     0.018001853929378    -0.014455667196398    -0.009813128915252
   3  22
    -0.000936754235485    -0.010502216770946     0.016863831761058
    -0.009182465358041    -0.059127280153438     0.011275991612795
     0.019538147772574     0.007292977175111    -0.013998220344817
   3  23
    -0.978495380238903    -1.169021955024633    -0.000239204077251
    -1.163046636934646    -0.978826535862254     0.002616372111532
    -0.001273559446479     0.001308340457571     0.139643172149705
   3  24
    -0.033147299105312    -0.014919203863817    -0.042252767183740
    -0.023775078198354    -0.020485591302845    -0.003870743208290
    -0.041821757421207     0.000154388800864    -0.041476021931647
   3  25
    -1.002821065778860     1.181157714180214     0.008695763524505
     1.183697754754655    -0.987742433103202     0.003703610538759
     0.000998556484771     0.000982678478890     0.151587135601305
   3  26
     0.144604659808811    -0.006328722736000    -0.010135902156683
    -0.002646746772243    -1.051407919828243    -1.133982420789649
     0.004958912460636    -1.194719652930506    -0.978923219090945
   3  27
     0.140328618344037    -0.007295981864344     0.002804366927229
    -0.013226912685141    -1.083344399430276     1.153150449131841
    -0.000390369988614     1.207147227785183    -0.981915846239281
   3  28
    -0.015141648071556    -0.018060030081740    -0.001663835093666
    -0.019462655254296    -0.023986532484527    -0.016630678946693
    -0.022349801605312    -0.016595295711329     0.003779327787524
   3  29
    -0.042926944249167     0.008791585348265     0.012420533746764
     0.014660365492417    -0.008778818456806     0.025000225508497
     0.028258860144915     0.009049595303407    -0.004653099700667
   3  30
    -0.010102877894228     0.019818045035283    -0.005987298018438
     0.013429615201538    -0.029723071788882    -0.022570114350344
    -0.015534446116240    -0.005507367737324    -0.005230556145291
   4   1
    -0.073362469335669     0.035162802394260    -0.003190191972084
    -0.023504899571990     0.037988073985300    -0.011713491460211
    -0.004483041692542     0.010442312851613     0.049541284383319
   4   2
    -0.073409186074188    -0.022851214034863    -0.003907792244729
     0.034518422536327     0.037969004943710     0.010723048789692
    -0.003914825701104    -0.012005206876276     0.049426936607474
   4   3
    -0.005440459912502    -0.025886464862391     0.003572588794069
     0.002501084741472     0.014645458566733     0.012915128269937
     0.009993250242738    -0.029309576661644    -0.114533767994137
   4   4
     6.645755574100772     0.018113961311792     0.019094277568262
     0.037997673033809     7.433976201152682     0.019971060649259
     0.043116073452375     0.029521649654985     6.873045534098362
   4   5
    -0.005534370818486     0.003119771508825     0.010860381105675
    -0.026594669955789     0.014573703027205    -0.028962101406356
     0.002669527782645     0.012578976298400    -0.114591162249317
   4   6
    -0.738696575834418     0.948717012056065     0.003414982135056
     0.823972034272579    -0.768631395774829     0.017039469497230
     0.003775156512645    -0.005123989980297     0.010141729295787
   4   7
    -0.001855558202359    -0.013803896263206    -0.050294108960524
    -0.014896008470475    -0.025469339914151    -0.015041495305475
    -0.011434996484599    -0.002030692222941    -0.042485253302411
   4   8
    -0.740804278124341    -0.926656218426123     0.011937070094911
    -0.813484826069695    -0.728787498502107     0.008639285725594
    -0.011851152254113    -0.013502041022221    -0.014805954155509
   4   9
     0.027052955807747     0.006801611831695     0.009994205333516
    -0.009565934453023    -0.058086334879479     0.019261562297595
     0.018681274413864     0.021529458630708    -0.023820190263529
   4  10
     0.018714862311075    -0.014082033921280     0.020368265434571
     0.010078875263001     0.018908051440001    -0.035201861020350
     0.000361638027447    -0.008179276587489    -0.025607579607511
   4  11
    -0.046116858929306     0.002394402380332     0.030509707083517
     0.017057285574355    -0.012852500643818    -0.000481165722225
    -0.016354859563221     0.035298563140628    -0.016724930224805
   4  12
    -0.015482144795512    -0.008717264965548    -0.008858649971387
    -0.036126283952557    -0.017047989695445    -0.013689244710571
    -0.015114563165241    -0.017011150006626     0.013127341253279
   4  13
     0.055178827891751    -0.002352530507958    -0.003118372264010
    -0.016622876403323    -1.036154452662945     0.940940084766596
     0.009907505879405     1.123641776777061    -0.835220986117854
   4  14
     0.071399667370335    -0.004622656881957    -0.001163204148974
    -0.006569358125951    -0.996801308682426    -0.935866729293686
     0.013292710112992    -1.093147422000331    -0.827755253058316
   4  15
    -0.014761903433762     0.007124261298982    -0.015672746840896
     0.036175882880621    -0.022988922811751     0.016309842337376
    -0.001838826839536    -0.041584665267247     0.005766975393391
   4  16
    -0.857824815086227     0.008447978902216    -0.870318690403482
     0.007858026821819     0.100250080680295     0.046499646501691
    -0.871202602411945     0.046289941352127    -0.789233689942553
   4  17
    -0.837370296109672    -0.001425470146845    -0.863419715344629
    -0.002495443832335     0.057219614297385    -0.027895485061401
    -0.864460850280571    -0.028076417915526    -0.815616137355253
   4  18
    -0.802551269411557    -0.020081501038950     0.857234761800358
    -0.021073574275139     0.120611899846100     0.008968900141333
     0.856297823375362     0.008481871097866    -0.836330333346807
   4  19
     0.022154550292926     0.005403005867368    -0.005014534174840
     0.004774820892468     0.026256364663887     0.026150272181224
    -0.005779445394410     0.025857722833381     0.022722902102608
   4  20
    -0.810748067279546     0.008352199046266     0.858871393828885
     0.007831620030685     0.049327331690229    -0.058214513321848
     0.857954109909833    -0.058329047749955    -0.826046957937081
   4  21
    -1.002821065778860     1.181157714180214     0.008695763524505
     1.183697754754655    -0.987742433103202     0.003703610538759
     0.000998556484771     0.000982678478890     0.151587135601305
   4  22
    -0.017657887272713     0.013201890420956     0.018592587996628
     0.007721809620719    -0.001482456919878    -0.019047205520903
     0.018001853929378    -0.014455667196398    -0.009813128915252
   4  23
    -0.000936754235485    -0.010502216770946     0.016863831761058
    -0.009182465358041    -0.059127280153438     0.011275991612795
     0.019538147772574     0.007292977175111    -0.013998220344817
   4  24
    -0.978495380238903    -1.169021955024633    -0.000239204077251
    -1.163046636934646    -0.978826535862254     0.002616372111532
    -0.001273559446479     0.001308340457571     0.139643172149705
   4  25
    -0.033147299105312    -0.014919203863817    -0.042252767183740
    -0.023775078198354    -0.020485591302845    -0.003870743208290
    -0.041821757421207     0.000154388800864    -0.041476021931647
   4  26
    -0.010102877894228     0.019818045035283    -0.005987298018438
     0.013429615201538    -0.029723071788882    -0.022570114350344
    -0.015534446116240    -0.005507367737324    -0.005230556145291
   4  27
     0.144604659808811    -0.006328722736000    -0.010135902156683
    -0.002646746772243    -1.051407919828243    -1.133982420789649
     0.004958912460636    -1.194719652930506    -0.978923219090945
   4  28
     0.140328618344037    -0.007295981864344     0.002804366927229
    -0.013226912685141    -1.083344399430276     1.153150449131841
    -0.000390369988614     1.207147227785183    -0.981915846239281
   4  29
    -0.015141648071556    -0.018060030081740    -0.001663835093666
    -0.019462655254296    -0.023986532484527    -0.016630678946693
    -0.022349801605312    -0.016595295711329     0.003779327787524
   4  30
    -0.042926944249167     0.008791585348265     0.012420533746764
     0.014660365492417    -0.008778818456806     0.025000225508497
     0.028258860144915     0.009049595303407    -0.004653099700667
   5   1
    -0.005534370818486     0.003119771508825     0.010860381105675
    -0.026594669955789     0.014573703027205    -0.028962101406356
     0.002669527782645     0.012578976298400    -0.114591162249317
   5   2
    -0.073362469335669     0.035162802394260    -0.003190191972084
    -0.023504899571990     0.037988073985300    -0.011713491460211
    -0.004483041692542     0.010442312851613     0.049541284383319
   5   3
    -0.073409186074188    -0.022851214034863    -0.003907792244729
     0.034518422536327     0.037969004943710     0.010723048789692
    -0.003914825701104    -0.012005206876276     0.049426936607474
   5   4
    -0.005440459912502    -0.025886464862391     0.003572588794069
     0.002501084741472     0.014645458566733     0.012915128269937
     0.009993250242738    -0.029309576661644    -0.114533767994137
   5   5
     6.645755574100772     0.018113961311792     0.019094277568262
     0.037997673033809     7.433976201152682     0.019971060649259
     0.043116073452375     0.029521649654985     6.873045534098362
   5   6
     0.018714862311075    -0.014082033921280     0.020368265434571
     0.010078875263001     0.018908051440001    -0.035201861020350
     0.000361638027447    -0.008179276587489    -0.025607579607511
   5   7
    -0.738696575834418     0.948717012056065     0.003414982135056
     0.823972034272579    -0.768631395774829     0.017039469497230
     0.003775156512645    -0.005123989980297     0.010141729295787
   5   8
    -0.001855558202359    -0.013803896263206    -0.050294108960524
    -0.014896008470475    -0.025469339914151    -0.015041495305475
    -0.011434996484599    -0.002030692222941    -0.042485253302411
   5   9
    -0.740804278124341    -0.926656218426123     0.011937070094911
    -0.813484826069695    -0.728787498502107     0.008639285725594
    -0.011851152254113    -0.013502041022221    -0.014805954155509
   5  10
     0.027052955807747     0.006801611831695     0.009994205333516
    -0.009565934453023    -0.058086334879479     0.019261562297595
     0.018681274413864     0.021529458630708    -0.023820190263529
   5  11
    -0.014761903433762     0.007124261298982    -0.015672746840896
     0.036175882880621    -0.022988922811751     0.016309842337376
    -0.001838826839536    -0.041584665267247     0.005766975393391
   5  12
    -0.046116858929306     0.002394402380332     0.030509707083517
     0.017057285574355    -0.012852500643818    -0.000481165722225
    -0.016354859563221     0.035298563140628    -0.016724930224805
   5  13
    -0.015482144795512    -0.008717264965548    -0.008858649971387
    -0.036126283952557    -0.017047989695445    -0.013689244710571
    -0.015114563165241    -0.017011150006626     0.013127341253279
   5  14
     0.055178827891751    -0.002352530507958    -0.003118372264010
    -0.016622876403323    -1.036154452662945     0.940940084766596
     0.009907505879405     1.123641776777061    -0.835220986117854
   5  15
     0.071399667370335    -0.004622656881957    -0.001163204148974
    -0.006569358125951    -0.996801308682426    -0.935866729293686
     0.013292710112992    -1.093147422000331    -0.827755253058316
   5  16
    -0.810748067279546     0.008352199046266     0.858871393828885
     0.007831620030685     0.049327331690229    -0.058214513321848
     0.857954109909833    -0.058329047749955    -0.826046957937081
   5  17
    -0.857824815086227     0.008447978902216    -0.870318690403482
     0.007858026821819     0.100250080680295     0.046499646501691
    -0.871202602411945     0.046289941352127    -0.789233689942553
   5  18
    -0.837370296109672    -0.001425470146845    -0.863419715344629
    -0.002495443832335     0.057219614297385    -0.027895485061401
    -0.864460850280571    -0.028076417915526    -0.815616137355253
   5  19
    -0.802551269411557    -0.020081501038950     0.857234761800358
    -0.021073574275139     0.120611899846100     0.008968900141333
     0.856297823375362     0.008481871097866    -0.836330333346807
   5  20
     0.022154550292926     0.005403005867368    -0.005014534174840
     0.004774820892468     0.026256364663887     0.026150272181224
    -0.005779445394410     0.025857722833381     0.022722902102608
   5  21
    -0.033147299105312    -0.014919203863817    -0.042252767183740
    -0.023775078198354    -0.020485591302845    -0.003870743208290
    -0.041821757421207     0.000154388800864    -0.041476021931647
   5  22
    -1.002821065778860     1.181157714180214     0.008695763524505
     1.183697754754655    -0.987742433103202     0.003703610538759
     0.000998556484771     0.000982678478890     0.151587135601305
   5  23
    -0.017657887272713     0.013201890420956     0.018592587996628
     0.007721809620719    -0.001482456919878    -0.019047205520903