  30
   1   1
     6.159365710415783     0.052519256018252    -0.109195872843745
     0.106677983255813     5.894998168257996     0.079954639846046
    -0.090148089737631     0.032170704412311     6.199728806441756
   1   2
    -0.029720035488238     0.004583589695416     0.014573548068759
     0.034031274591719    -0.027158237245129     0.007859955457654
     0.029073091267915     0.042061700701083    -0.031331659093553
   1   3
    -0.027629178192041     0.018677012772612     0.013828548867109
     0.011123958382935    -0.007735366042719     0.021883758541076
     0.016934391393099     0.016432739920399    -0.026095353989714
   1   4
    -0.027553853566606     0.012970689148474     0.017497088047469
     0.016793292007578    -0.007736854310363     0.014779751644956
     0.012982174525912     0.023577045117509    -0.025880199184137
   1   5
    -0.029480431424851     0.035894662650222     0.029806671887478
     0.002797216417790    -0.027158417256583     0.040373291644859
     0.013943766695753     0.009455804722449    -0.031682315229444
   1   6
    -0.010989300469934    -0.018843270929091    -0.011947264887925
    -0.020883534969326    -0.759435393728428    -0.811699930972109
    -0.012672398524094    -0.810074732491605    -0.756827623677025
   1   7
     0.011642315910423     0.008629660725657    -0.019678812992942
     0.006656440078875     0.049198913559204     0.015103290804531
    -0.020517327492341     0.016599395689639    -0.042458769584333
   1   8
    -0.016835019653656     0.000645051211549    -0.006495076776418
    -0.001223808204967    -0.049329728714446    -0.003406628656855
    -0.007095607507189    -0.001800309382578    -0.022340082663439
   1   9
    -0.041536175263965     0.019369799503515    -0.021138638266111
     0.017616137964867     0.048138291879693     0.003406730405235
    -0.021601866132191     0.005149704114667     0.007955992553842
   1  10
    -0.752692320729916    -0.801421670357348    -0.010035548922625
    -0.803279468610232    -0.757449201265373    -0.022072467556009
    -0.010494529696083    -0.020262217135637    -0.010048209547252
   1  11
    -0.885131771404262    -0.009825646086928     0.995687611047953
    -0.009529397177254     0.105935422899206    -0.008104320161437
     0.995477734941108    -0.007934464784237    -0.884217283373929
   1  12
     0.013304536377732    -0.009160130915512    -0.012635122830369
    -0.008381456401729    -0.028908054490117    -0.059287325034984
    -0.012348117732478    -0.049201756155522    -0.045327627579955
   1  13
     0.077248040414850    -0.021616703835433     0.017619050689192
    -0.015937436598380    -0.691274788037896     0.791164699596820
     0.011414101682546     0.783088413442743    -0.710539239835278
   1  14
    -0.706415177133735     0.782745921636193     0.011697843933876
     0.788133521139374    -0.682744676374071    -0.016385922869651
     0.016965548526823    -0.020797275274888     0.079655205154213
   1  15
    -0.044746891050668    -0.045847923968837    -0.013103841155395
    -0.057240308388950    -0.027317551029575    -0.008062197842490
    -0.013094702524613    -0.007868800582650     0.014226069683221
   1  16
    -0.022933068972935    -0.017183822433810     0.021232010500459
    -0.024922179026587    -0.005684177736770    -0.010776235478877
     0.015642486469983    -0.006078314893059    -0.013900193973664
   1  17
    -0.759952475679644    -0.016596417498301    -0.809666708228818
    -0.009743296491517     0.043723819466415    -0.007483410903129
    -0.825891396380872    -0.012376085460827    -0.775769758258031
   1  18
     0.031414457743964    -0.014230807700272     0.005643579058651
     0.004776855420447    -0.059790216496551     0.008249957489223
     0.005534580934348    -0.011370281831998     0.033653204215187
   1  19
    -0.776519007215650    -0.013748331723213    -0.825341700361425
    -0.010514786787819     0.043922450481532    -0.008723672411200
    -0.810856968330137    -0.016606038927519    -0.757122320509712
   1  20
    -0.013016592302632    -0.006425728485351     0.015645056739240
    -0.014694447554136    -0.006693912281873    -0.021382660762156
     0.018550810256135    -0.015277285967016    -0.024015727973282
   1  21
    -0.681887442465131    -0.007257607994899     0.770207913595017
    -0.007279286308882     0.082499125724050    -0.007230907582557
     0.769303173514641    -0.005690094080294    -0.682660485835798
   1  22
     0.005760998921415    -0.002106728052811    -0.015306094033139
    -0.015841839675728     0.018809521752898     0.004966562679031
    -0.012023462866574    -0.001266183105724     0.017350139575154
   1  23
    -0.795062658127563     0.903962174571136     0.002636827227915
     0.867766596895723    -0.792906729562522    -0.009303702308918
    -0.002891595262782    -0.004034746332272     0.084613035099470
   1  24
     0.084359531648260    -0.006308686447727    -0.003016416757104
    -0.009570035056194    -0.809276241396745     0.879993182769332
     0.002739432118534     0.915503669910846    -0.809662297080764
   1  25
     0.016181128282619    -0.001837005260562    -0.012332329693232
     0.004286042540844     0.018772428613819    -0.018270820637030
    -0.017372744846783    -0.002007064772466     0.004176666119718
   1  26
    -0.786669309725969    -0.855339601851198    -0.006934700586649
    -0.864517003773103    -0.791745084619849    -0.004561273457740
    -0.003513166177990    -0.009582761181393     0.070694152589883
   1  27
    -0.059748433327346     0.010247526638821    -0.016981199451432
     0.015278662685020     0.014950368283152     0.004093989655655
    -0.014053332092117     0.000543063412824     0.003523153722931
   1  28
    -0.011363411562083     0.006348138705827    -0.007000557156279
    -0.000686321378257    -0.009925221953551     0.001017013852089
    -0.008230070663441     0.005779625353158    -0.012368205598990
   1  29
     0.005810569649485     0.001122609296063    -0.011030826542099
     0.003922848778116     0.015934901572822     0.016814373412514
    -0.016807679316983     0.013224444915527    -0.059963329526519
   1  30
     0.074796647769116    -0.009968876588048    -0.004232468764179
    -0.005614224192548    -0.794613060070600    -0.872911721129699
    -0.008951796360063    -0.861356528590772    -0.793367412016280
   2   1
    -0.029480431424851     0.035894662650222     0.029806671887478
     0.002797216417790    -0.027158417256583     0.040373291644859
     0.013943766695753     0.009455804722449    -0.031682315229444
   2   2
     6.159365710415783     0.052519256018252    -0.109195872843745
     0.106677983255813     5.894998168257995     0.079954639846046
    -0.090148089737630     0.032170704412311     6.199728806441756
   2   3
    -0.029720035488238     0.004583589695416     0.014573548068759
     0.034031274591719    -0.027158237245129     0.007859955457654
     0.029073091267915     0.042061700701083    -0.031331659093553
   2   4
    -0.027629178192041     0.018677012772612     0.013828548867109
     0.011123958382935    -0.007735366042719     0.021883758541076
     0.016934391393099     0.016432739920399    -0.026095353989714
   2   5
    -0.027553853566606     0.012970689148474     0.017497088047469
     0.016793292007578    -0.007736854310363     0.014779751644956
     0.012982174525912     0.023577045117509    -0.025880199184137
   2   6
    -0.752692320729916    -0.801421670357348    -0.010035548922625
    -0.803279468610232    -0.757449201265373    -0.022072467556009
    -0.010494529696083    -0.020262217135637    -0.010048209547252
   2   7
    -0.010989300469934    -0.018843270929091    -0.011947264887925
    -0.020883534969326    -0.759435393728428    -0.811699930972109
    -0.012672398524094    -0.810074732491605    -0.756827623677025
   2   8
     0.011642315910423     0.008629660725657    -0.019678812992942
     0.006656440078875     0.049198913559204     0.015103290804531
    -0.020517327492341     0.016599395689639    -0.042458769584333
   2   9
    -0.016835019653656     0.000645051211549    -0.006495076776418
    -0.001223808204967    -0.049329728714446    -0.003406628656855
    -0.007095607507189    -0.001800309382578    -0.022340082663439
   2  10
    -0.041536175263965     0.019369799503515    -0.021138638266111
     0.017616137964867     0.048138291879693     0.003406730405235
    -0.021601866132191     0.005149704114667     0.007955992553842
   2  11
    -0.044746891050668    -0.045847923968837    -0.013103841155395
    -0.057240308388950    -0.027317551029575    -0.008062197842490
    -0.013094702524613    -0.007868800582650     0.014226069683221
   2  12
    -0.885131771404262    -0.009825646086928     0.995687611047953
    -0.009529397177254     0.105935422899206    -0.008104320161437
     0.995477734941108    -0.007934464784237    -0.884217283373929
   2  13
     0.013304536377732    -0.009160130915512    -0.012635122830369
    -0.008381456401729    -0.028908054490117    -0.059287325034984
    -0.012348117732478    -0.049201756155522    -0.045327627579955
   2  14
     0.077248040414850    -0.021616703835433     0.017619050689192
    -0.015937436598380    -0.691274788037896     0.791164699596820
     0.011414101682546     0.783088413442743    -0.710539239835278
   2  15
    -0.706415177133735     0.782745921636193     0.011697843933876
     0.788133521139374    -0.682744676374071    -0.016385922869651
     0.016965548526823    -0.020797275274888     0.079655205154213
   2  16
    -0.013016592302632    -0.006425728485351     0.015645056739240
    -0.014694447554136    -0.006693912281873    -0.021382660762156
     0.018550810256135    -0.015277285967016    -0.024015727973282
   2  17
    -0.022933068972935    -0.017183822433810     0.021232010500459
    -0.024922179026587    -0.005684177736770    -0.010776235478877
     0.015642486469983    -0.006078314893059    -0.013900193973664
   2  18
    -0.759952475679644    -0.016596417498301    -0.809666708228818
    -0.009743296491517     0.043723819466415    -0.007483410903129
    -0.825891396380872    -0.012376085460827    -0.775769758258031
   2  19
     0.031414457743964    -0.014230807700272     0.005643579058651
     0.004776855420447    -0.059790216496551     0.008249957489223
     0.005534580934348    -0.011370281831998     0.033653204215187
   2  20
    -0.776519007215650    -0.013748331723213    -0.825341700361425
    -0.010514786787819     0.043922450481532    -0.008723672411200
    -0.810856968330137    -0.016606038927519    -0.757122320509712
   2  21
     0.016181128282619    -0.001837005260562    -0.012332329693232
     0.004286042540844     0.018772428613819    -0.018270820637030
    -0.017372744846783    -0.002007064772466     0.004176666119718
   2  22
    -0.681887442465131    -0.007257607994899     0.770207913595017
    -0.007279286308882     0.082499125724050    -0.007230907582557
     0.769303173514641    -0.005690094080294    -0.682660485835798
   2  23
     0.005760998921415    -0.002106728052811    -0.015306094033139
    -0.015841839675728     0.018809521752898     0.004966562679031
    -0.012023462866574    -0.001266183105724     0.017350139575154
   2  24
    -0.795062658127563     0.903962174571136     0.002636827227915
     0.867766596895723    -0.792906729562522    -0.009303702308918
    -0.002891595262782    -0.004034746332272     0.084613035099470
   2  25
     0.084359531648260    -0.006308686447727    -0.003016416757104
    -0.009570035056194    -0.809276241396745     0.879993182769332
     0.002739432118534     0.915503669910846    -0.809662297080764
   2  26
     0.074796647769116    -0.009968876588048    -0.004232468764179
    -0.005614224192548    -0.794613060070600    -0.872911721129699
    -0.008951796360063    -0.861356528590772    -0.793367412016280
   2  27
    -0.786669309725969    -0.855339601851198    -0.006934700586649
    -0.864517003773103    -0.791745084619849    -0.004561273457740
    -0.003513166177990    -0.009582761181393     0.070694152589883
   2  28
    -0.059748433327346     0.010247526638821    -0.016981199451432
     0.015278662685020     0.014950368283152     0.004093989655655
    -0.014053332092117     0.000543063412824     0.003523153722931
   2  29
    -0.011363411562083     0.006348138705827    -0.007000557156279
    -0.000686321378257    -0.009925221953551     0.001017013852089
    -0.008230070663441     0.005779625353158    -0.012368205598990
   2  30
     0.005810569649485     0.001122609296063    -0.011030826542099
     0.003922848778116     0.015934901572822     0.016814373412514
    -0.016807679316983     0.013224444915527    -0.059963329526519
   3   1
    -0.027553853566606     0.012970689148474     0.017497088047469
     0.016793292007578    -0.007736854310363     0.014779751644956
     0.012982174525912     0.023577045117509    -0.025880199184137
   3   2
    -0.029480431424851     0.035894662650222     0.029806671887478
     0.002797216417790    -0.027158417256583     0.040373291644859
     0.013943766695753     0.009455804722449    -0.031682315229444
   3   3
     6.159365710415783     0.052519256018252    -0.109195872843745
     0.106677983255813     5.894998168257995     0.079954639846046
    -0.090148089737630     0.032170704412311     6.199728806441756
   3   4
    -0.029720035488238     0.004583589695416     0.014573548068759
     0.034031274591719    -0.027158237245129     0.007859955457654
     0.029073091267915     0.042061700701083    -0.031331659093553
   3   5
    -0.027629178192041     0.018677012772612     0.013828548867109
     0.011123958382935    -0.007735366042719     0.021883758541076
     0.016934391393099     0.016432739920399    -0.026095353989714
   3   6
    -0.041536175263965     0.019369799503515    -0.021138638266111
     0.017616137964867     0.048138291879693     0.003406730405235
    -0.021601866132191     0.005149704114667     0.007955992553842
   3   7
    -0.752692320729916    -0.801421670357348    -0.010035548922625
    -0.803279468610232    -0.757449201265373    -0.022072467556009
    -0.010494529696083    -0.020262217135637    -0.010048209547252
   3   8
    -0.010989300469934    -0.018843270929091    -0.011947264887925
    -0.020883534969326    -0.759435393728428    -0.811699930972109
    -0.012672398524094    -0.810074732491605    -0.756827623677025
   3   9
     0.011642315910423     0.008629660725657    -0.019678812992942
     0.006656440078875     0.049198913559204     0.015103290804531
    -0.020517327492341     0.016599395689639    -0.042458769584333
   3  10
    -0.016835019653656     0.000645051211549    -0.006495076776418
    -0.001223808204967    -0.049329728714446    -0.003406628656855
    -0.007095607507189    -0.001800309382578    -0.022340082663439
   3  11
    -0.706415177133735     0.782745921636193     0.011697843933876
     0.788133521139374    -0.682744676374071    -0.016385922869651
     0.016965548526823    -0.020797275274888     0.079655205154213
   3  12
    -0.044746891050668    -0.045847923968837    -0.013103841155395
    -0.057240308388950    -0.027317551029575    -0.008062197842490
    -0.013094702524613    -0.007868800582650     0.014226069683221
   3  13
    -0.885131771404262    -0.009825646086928     0.995687611047953
    -0.009529397177254     0.105935422899206    -0.008104320161437
     0.995477734941108    -0.007934464784237    -0.884217283373929
   3  14
     0.013304536377732    -0.009160130915512    -0.012635122830369
    -0.008381456401729    -0.028908054490117    -0.059287325034984
    -0.012348117732478    -0.049201756155522    -0.045327627579955
   3  15
     0.077248040414850    -0.021616703835433     0.017619050689192
    -0.015937436598380    -0.691274788037896     0.791164699596820
     0.011414101682546     0.783088413442743    -0.710539239835278
   3  16
    -0.776519007215650    -0.013748331723213    -0.825341700361425
    -0.010514786787819     0.043922450481532    -0.008723672411200
    -0.810856968330137    -0.016606038927519    -0.757122320509712
   3  17
    -0.013016592302632    -0.006425728485351     0.015645056739240
    -0.014694447554136    -0.006693912281873    -0.021382660762156
     0.018550810256135    -0.015277285967016    -0.024015727973282
   3  18
    -0.022933068972935    -0.017183822433810     0.021232010500459
    -0.024922179026587    -0.005684177736770    -0.010776235478877
     0.015642486469983    -0.006078314893059    -0.013900193973664
   3  19
    -0.759952475679644    -0.016596417498301    -0.809666708228818
    -0.009743296491517     0.043723819466415    -0.007483410903129
    -0.825891396380872    -0.012376085460827    -0.775769758258031
   3  20
     0.031414457743964    -0.014230807700272     0.005643579058651
     0.004776855420447    -0.059790216496551     0.008249957489223
     0.005534580934348    -0.011370281831998     0.033653204215187
   3  21
     0.084359531648260    -0.006308686447727    -0.003016416757104
    -0.009570035056194    -0.809276241396745     0.879993182769332
     0.002739432118534     0.915503669910846    -0.809662297080764
   3  22
     0.016181128282619    -0.001837005260562    -0.012332329693232
     0.004286042540844     0.018772428613819    -0.018270820637030
    -0.017372744846783    -0.002007064772466     0.004176666119718
   3  23
    -0.681887442465131    -0.007257607994899     0.770207913595017
    -0.007279286308882     0.082499125724050    -0.007230907582557
     0.769303173514641    -0.005690094080294    -0.682660485835798
   3  24
     0.005760998921415    -0.002106728052811    -0.015306094033139
    -0.015841839675728     0.018809521752898     0.004966562679031
    -0.012023462866574    -0.001266183105724     0.017350139575154
   3  25
    -0.795062658127563     0.903962174571136     0.002636827227915
     0.867766596895723    -0.792906729562522    -0.009303702308918
    -0.002891595262782    -0.004034746332272     0.084613035099470
   3  26
     0.005810569649485     0.001122609296063    -0.011030826542099
     0.003922848778116     0.015934901572822     0.016814373412514
    -0.016807679316983     0.013224444915527    -0.059963329526519
   3  27
     0.074796647769116    -0.009968876588048    -0.004232468764179
    -0.005614224192548    -0.794613060070600    -0.872911721129699
    -0.008951796360063    -0.861356528590772    -0.793367412016280
   3  28
    -0.786669309725969    -0.855339601851198    -0.006934700586649
    -0.864517003773103    -0.791745084619849    -0.004561273457740
    -0.003513166177990    -0.009582761181393     0.070694152589883
   3  29
    -0.059748433327346     0.010247526638821    -0.016981199451432
     0.015278662685020     0.014950368283152     0.004093989655655
    -0.014053332092117     0.000543063412824     0.003523153722931
   3  30
    -0.011363411562083     0.006348138705827    -0.007000557156279
    -0.000686321378257    -0.009925221953551     0.001017013852089
    -0.008230070663441     0.005779625353158    -0.012368205598990
   4   1
    -0.027629178192041     0.018677012772612     0.013828548867109
     0.011123958382935    -0.007735366042719     0.021883758541076
     0.016934391393099     0.016432739920399    -0.026095353989714
   4   2
    -0.027553853566606     0.012970689148474     0.017497088047469
     0.016793292007578    -0.007736854310363     0.014779751644956
     0.012982174525912     0.023577045117509    -0.025880199184137
   4   3
    -0.029480431424851     0.035894662650222     0.029806671887478
     0.002797216417790    -0.027158417256583     0.040373291644859
     0.013943766695753     0.009455804722449    -0.031682315229444
   4   4
     6.159365710415783     0.052519256018252    -0.109195872843745
     0.106677983255813     5.894998168257995     0.079954639846046
    -0.090148089737630     0.032170704412311     6.199728806441756
   4   5
    -0.029720035488238     0.004583589695416     0.014573548068759
     0.034031274591719    -0.027158237245129     0.007859955457654
     0.029073091267915     0.042061700701083    -0.031331659093553
   4   6
    -0.016835019653656     0.000645051211549    -0.006495076776418
    -0.001223808204967    -0.049329728714446    -0.003406628656855
    -0.007095607507189    -0.001800309382578    -0.022340082663439
   4   7
    -0.041536175263965     0.019369799503515    -0.021138638266111
     0.017616137964867     0.048138291879693     0.003406730405235
    -0.021601866132191     0.005149704114667     0.007955992553842
   4   8
    -0.752692320729916    -0.801421670357348    -0.010035548922625
    -0.803279468610232    -0.757449201265373    -0.022072467556009
    -0.010494529696083    -0.020262217135637    -0.010048209547252
   4   9
    -0.010989300469934    -0.018843270929091    -0.011947264887925
    -0.020883534969326    -0.759435393728428    -0.811699930972109
    -0.012672398524094    -0.810074732491605    -0.756827623677025
   4  10
     0.011642315910423     0.008629660725657    -0.019678812992942
     0.006656440078875     0.049198913559204     0.015103290804531
    -0.020517327492341     0.016599395689639    -0.042458769584333
   4  11
     0.077248040414850    -0.021616703835433     0.017619050689192
    -0.015937436598380    -0.691274788037896     0.791164699596820
     0.011414101682546     0.783088413442743    -0.710539239835278
   4  12
    -0.706415177133735     0.782745921636193     0.011697843933876
     0.788133521139374    -0.682744676374071    -0.016385922869651
     0.016965548526823    -0.020797275274888     0.079655205154213
   4  13
    -0.044746891050668    -0.045847923968837    -0.013103841155395
    -0.057240308388950    -0.027317551029575    -0.008062197842490
    -0.013094702524613    -0.007868800582650     0.014226069683221
   4  14
    -0.885131771404262    -0.009825646086928     0.995687611047953
    -0.009529397177254     0.105935422899206    -0.008104320161437
     0.995477734941108    -0.007934464784237    -0.884217283373929
   4  15
     0.013304536377732    -0.009160130915512    -0.012635122830369
    -0.008381456401729    -0.028908054490117    -0.059287325034984
    -0.012348117732478    -0.049201756155522    -0.045327627579955
   4  16
     0.031414457743964    -0.014230807700272     0.005643579058651
     0.004776855420447    -0.059790216496551     0.008249957489223
     0.005534580934348    -0.011370281831998     0.033653204215187
   4  17
    -0.776519007215650    -0.013748331723213    -0.825341700361425
    -0.010514786787819     0.043922450481532    -0.008723672411200
    -0.810856968330137    -0.016606038927519    -0.757122320509712
   4  18
    -0.013016592302632    -0.006425728485351     0.015645056739240
    -0.014694447554136    -0.006693912281873    -0.021382660762156
     0.018550810256135    -0.015277285967016    -0.024015727973282
   4  19
    -0.022933068972935    -0.017183822433810     0.021232010500459
    -0.024922179026587    -0.005684177736770    -0.010776235478877
     0.015642486469983    -0.006078314893059    -0.013900193973664
   4  20
    -0.759952475679644    -0.016596417498301    -0.809666708228818
    -0.009743296491517     0.043723819466415    -0.007483410903129
    -0.825891396380872    -0.012376085460827    -0.775769758258031
   4  21
    -0.795062658127563     0.903962174571136     0.002636827227915
     0.867766596895723    -0.792906729562522    -0.009303702308918
    -0.002891595262782    -0.004034746332272     0.084613035099470
   4  22
     0.084359531648260    -0.006308686447727    -0.003016416757104
    -0.009570035056194    -0.809276241396745     0.879993182769332
     0.002739432118534     0.915503669910846    -0.809662297080764
   4  23
     0.016181128282619    -0.001837005260562    -0.012332329693232
     0.004286042540844     0.018772428613819    -0.018270820637030
    -0.017372744846783    -0.002007064772466     0.004176666119718
   4  24
    -0.681887442465131    -0.007257607994899     0.770207913595017
    -0.007279286308882     0.082499125724050    -0.007230907582557
     0.769303173514641    -0.005690094080294    -0.682660485835798
   4  25
     0.005760998921415    -0.002106728052811    -0.015306094033139
    -0.015841839675728     0.018809521752898     0.004966562679031
    -0.012023462866574    -0.001266183105724     0.017350139575154
   4  26
    -0.011363411562083     0.006348138705827    -0.007000557156279
    -0.000686321378257    -0.009925221953551     0.001017013852089
    -0.008230070663441     0.005779625353158    -0.012368205598990
   4  27
     0.005810569649485     0.001122609296063    -0.011030826542099
     0.003922848778116     0.015934901572822     0.016814373412514
    -0.016807679316983     0.013224444915527    -0.059963329526519
   4  28
     0.074796647769116    -0.009968876588048    -0.004232468764179
    -0.005614224192548    -0.794613060070600    -0.872911721129699
    -0.008951796360063    -0.861356528590772    -0.793367412016280
   4  29
    -0.786669309725969    -0.855339601851198    -0.006934700586649
    -0.864517003773103    -0.791745084619849    -0.004561273457740
    -0.003513166177990    -0.009582761181393     0.070694152589883
   4  30
    -0.059748433327346     0.010247526638821    -0.016981199451432
     0.015278662685020     0.014950368283152     0.004093989655655
    -0.014053332092117     0.000543063412824     0.003523153722931
   5   1
    -0.029720035488238     0.004583589695416     0.014573548068759
     0.034031274591719    -0.027158237245129     0.007859955457654
     0.029073091267915     0.042061700701083    -0.031331659093553
   5   2
    -0.027629178192041     0.018677012772612     0.013828548867109
     0.011123958382935    -0.007735366042719     0.021883758541076
     0.016934391393099     0.016432739920399    -0.026095353989714
   5   3
    -0.027553853566606     0.012970689148474     0.017497088047469
     0.016793292007578    -0.007736854310363     0.014779751644956
     0.012982174525912     0.023577045117509    -0.025880199184137
   5   4
    -0.029480431424851     0.035894662650222     0.029806671887478
     0.002797216417790    -0.027158417256583     0.040373291644859
     0.013943766695753     0.009455804722449    -0.031682315229444
   5   5
     6.159365710415783     0.052519256018252    -0.109195872843745
     0.106677983255813     5.894998168257995     0.079954639846046
    -0.090148089737630     0.032170704412311     6.199728806441756
   5   6
     0.011642315910423     0.008629660725657    -0.019678812992942
     0.006656440078875     0.049198913559204     0.015103290804531
    -0.020517327492341     0.016599395689639    -0.042458769584333
   5   7
    -0.016835019653656     0.000645051211549    -0.006495076776418
    -0.001223808204967    -0.049329728714446    -0.003406628656855
    -0.007095607507189    -0.001800309382578    -0.022340082663439
   5   8
    -0.041536175263965     0.019369799503515    -0.021138638266111
     0.017616137964867     0.048138291879693     0.003406730405235
    -0.021601866132191     0.005149704114667     0.007955992553842
   5   9
    -0.752692320729916    -0.801421670357348    -0.010035548922625
    -0.803279468610232    -0.757449201265373    -0.022072467556009
    -0.010494529696083    -0.020262217135637    -0.010048209547252
   5  10
    -0.010989300469934    -0.018843270929091    -0.011947264887925
    -0.020883534969326    -0.759435393728428    -0.811699930972109
    -0.012672398524094    -0.810074732491605    -0.756827623677025
   5  11
     0.013304536377732    -0.009160130915512    -0.012635122830369
    -0.008381456401729    -0.028908054490117    -0.059287325034984
    -0.012348117732478    -0.049201756155522    -0.045327627579955
   5  12
     0.077248040414850    -0.021616703835433     0.017619050689192
    -0.015937436598380    -0.691274788037896     0.791164699596820
     0.011414101682546     0.783088413442743    -0.710539239835278
   5  13
    -0.706415177133735     0.782745921636193     0.011697843933876
     0.788133521139374    -0.682744676374071    -0.016385922869651
     0.016965548526823    -0.020797275274888     0.079655205154213
   5  14
    -0.044746891050668    -0.045847923968837    -0.013103841155395
    -0.057240308388950    -0.027317551029575    -0.008062197842490
    -0.013094702524613    -0.007868800582650     0.014226069683221
   5  15
    -0.885131771404262    -0.009825646086928     0.995687611047953
    -0.009529397177254     0.105935422899206    -0.008104320161437
     0.995477734941108    -0.007934464784237    -0.884217283373929
   5  16
    -0.759952475679644    -0.016596417498301    -0.809666708228818
    -0.009743296491517     0.043723819466415    -0.007483410903129
    -0.825891396380872    -0.012376085460827    -0.775769758258031
   5  17
     0.031414457743964    -0.014230807700272     0.005643579058651
     0.004776855420447    -0.059790216496551     0.008249957489223
     0.005534580934348    -0.011370281831998     0.033653204215187
   5  18
    -0.776519007215650    -0.013748331723213    -0.825341700361425
    -0.010514786787819     0.043922450481532    -0.008723672411200
    -0.810856968330137    -0.016606038927519    -0.757122320509712
   5  19
    -0.013016592302632    -0.006425728485351     0.015645056739240
    -0.014694447554136    -0.006693912281873    -0.021382660762156
     0.018550810256135    -0.015277285967016    -0.024015727973282
   5  20
    -0.022933068972935    -0.017183822433810     0.021232010500459
    -0.024922179026587    -0.005684177736770    -0.010776235478877
     0.015642486469983    -0.006078314893059    -0.013900193973664
   5  21
     0.005760998921415    -0.002106728052811    -0.015306094033139
    -0.015841839675728     0.018809521752898     0.004966562679031
    -0.012023462866574    -0.001266183105724     0.017350139575154
   5  22
    -0.795062658127563     0.903962174571136     0.002636827227915
     0.867766596895723    -0.792906729562522    -0.009303702308918
    -0.002891595262782    -0.004034746332272     0.084613035099470
   5  23
     0.084359531648260    -0.006308686447727    -0.003016416757104
    -0.009570035056194    -0.809276241396745     0.879993182769332