30
Lattice="0.0010071806661114 -8.094488938710093 0.0013842509265345 2.0340698630774448 -2.0252742330050704 8.143139449354791 -8.153773129746668 2.0249569668823124 -2.0314879531199868" Properties=Z:I:1:pos:R:3:vasp_force:R:3 uuid=d0806503-4570-4c9f-a824-ccb0195e1928 vasp_virial="-0.06910172522261777 -0.13190917913376168 -0.19722993778147108 -0.13190917913376168 -0.1688066316492982 -0.25465533361468806 -0.19722993778147108 -0.25465533361468806 0.10313042439679292" vasp_energy=-108.34855307 pbc="T T T"
      46      -2.04979605      -0.01041098       2.04752829      -0.00010000       0.06232900       0.00143600 
      46      -0.01182582      -4.04825279       4.08300576      -0.00201100       0.00232700       0.00138000 
      46      -6.12762748      -6.07113764       4.08699699      -0.00173500       0.00316600       0.00169900 
      46      -4.09066319      -2.02449052       6.12109192      -0.00183800       0.00331500       0.00177900 
      46      -4.08676159      -4.04705810       0.01343165      -0.00191200       0.00390600       0.00212500 
      46      -2.03046608      -6.07101881       4.06394804       0.00115800      -0.01127200      -0.00889100 
      46       0.00649821      -2.02437169       6.09804297       0.00179100      -0.00360100      -0.00141200 
      46      -6.10930345      -4.04725654       6.10203420       0.00214600      -0.00386600      -0.00168700 
      46      -6.10540184      -6.06982412      -0.00562607       0.00227800      -0.00230500      -0.00102600 
      46      -4.06843755      -2.02317699       2.02846886      -0.00684400      -0.01045100      -0.00077400 
      47      -4.06542490      -8.09450771       4.06271605      -0.00192100       0.00001900       0.00096100 
      47      -2.02846061      -4.04786059       6.09681098      -0.00124100      -0.00167800       0.00029500 
      47      -2.02455900      -6.07042817      -0.01084929      -0.00155800      -0.00799500       0.00842400 
      47       0.01240529      -2.02378105       2.02324564       0.00702700      -0.00754700       0.00066300 
      47      -6.10339637      -4.04666590       2.02723687      -0.00196600      -0.00053600       0.00053500 
      47      -4.07789050      -6.07140962       6.10956402      -0.00147100       0.00102000       0.00053400 
      47      -4.07499607       0.00051174       0.00051950      -0.00124300       0.00116700       0.00041800 
      47      -2.03702460      -4.04733008       2.03599868      -0.00103400       0.00022000       0.00026400 
      47       0.00094687      -8.09517189       4.07147787      -0.00099400       0.00145200       0.00045800 
      47      -6.11586197      -2.02356780       4.07408484      -0.00162400       0.00036100       0.00054300 
      47      -0.00237289      -0.00002013       0.00191059       0.00086600       0.00007600      -0.00051700 
      47      -6.11817455      -2.02290498       0.00590182       0.00086100      -0.00007700      -0.00109400 
      47      -4.08020308      -6.07074680       2.04138100       0.00956300      -0.00821000      -0.00108400 
      47      -2.04323879      -2.02409967       4.07547593       0.00134600      -0.00947600       0.00837000 
      47      -0.00526732      -6.07194149       6.11095511       0.00152500      -0.00108300      -0.00042300 
      47      -0.01383135      -6.07141098       2.05014285      -0.00661000      -0.00645400      -0.00084000 
      47      -6.13064019       0.00019311       2.05274983       0.00154500       0.00064000      -0.00084600 
      47      -4.09266872      -4.04764871       4.08822901       0.00136800       0.00074100      -0.00064300 
      47      -2.05469724      -8.09549052       6.12370819       0.00145000       0.00143500      -0.00038400 
      47      -2.05180282      -2.02356917       0.01466367       0.00117700      -0.00762200      -0.01026000 
30
Lattice="0.0010071806661114 -8.094488938710093 0.0013842509265345 2.0340698630774448 -2.0252742330050704 8.143139449354791 -8.153773129746668 2.0249569668823124 -2.0314879531199868" Properties=Z:I:1:pos:R:3:vasp_force:R:3 uuid=eb1f9051-c099-4f74-9c73-e44a84fe33e7 vasp_virial="-0.0657296818213684 -0.1331894232236017 -0.20102034104500235 -0.1331894232236017 -0.16735967272712032 -0.2558003185009332 -0.20102034104500235 -0.2558003185009332 0.10586077297168513" vasp_energy=-108.34859083 pbc="T T T"
      46      -2.04979729      -0.00041098       2.04752658      -0.00133200      -0.00248000      -0.00447000 
      46      -0.01182582      -4.04825279       4.08300576      -0.00235700       0.00226500       0.00125900 
      46      -6.12762748      -6.07113764       4.08699699      -0.00219700       0.00321000       0.00152400 
      46      -4.09066319      -2.02449052       6.12109192      -0.00211600       0.00347200       0.00144000 
      46      -4.08676159      -4.04705810       0.01343165      -0.00212800       0.00422500       0.00126100 
      46      -2.03282191      -6.06867318       4.05451681       0.01496600      -0.01687400       0.05626000 
      46       0.00649821      -2.02437169       6.09804297       0.00177800      -0.00387000      -0.00187100 
      46      -6.10930345      -4.04725654       6.10203420       0.00218200      -0.00312100      -0.00187100 
      46      -6.10540184      -6.06982412      -0.00562607       0.00216900      -0.00258500      -0.00130700 
      46      -4.06843755      -2.02317699       2.02846886       0.00148100      -0.00230200      -0.00081400 
      47      -4.06542490      -8.09450771       4.06271605      -0.00169100      -0.00129400       0.00174000 
      47      -2.02846061      -4.04786059       6.09681098      -0.00106100      -0.00760400      -0.00449100 
      47      -2.02455900      -6.07042817      -0.01084929      -0.00155800      -0.00111600       0.00005600 
      47       0.01240529      -2.02378105       2.02324564      -0.00111200      -0.00053400       0.00071500 
      47      -6.10339637      -4.04666590       2.02723687      -0.00170000      -0.00028600       0.00061900 
      47      -4.07789050      -6.07140962       6.10956402       0.00436100       0.00080100      -0.00389300 
      47      -4.07499607       0.00051174       0.00051950      -0.00130200       0.00064200       0.00056200 
      47      -2.03702460      -4.04733008       2.03599868      -0.00083600       0.01155500      -0.00969100 
      47       0.00094687      -8.09517189       4.07147787      -0.00480200       0.00492500       0.00138700 
      47      -6.11586197      -2.02356780       4.07408484      -0.00154800       0.00035200       0.00090000 
      47      -0.00237289      -0.00002013       0.00191059       0.00110000      -0.00085200      -0.00049200 
      47      -6.11817455      -2.02290498       0.00590182       0.00119500      -0.00042700      -0.00126200 
      47      -4.08020308      -6.07074680       2.04138100      -0.00862300      -0.00072500      -0.01022000 
      47      -2.04323879      -2.02409967       4.07547593       0.00155500      -0.00127200      -0.00026800 
      47      -0.00526732      -6.07194149       6.11095511      -0.00785700      -0.00153400      -0.00923300 
      47      -0.01383135      -6.07141098       2.05014285       0.00927600       0.00096700      -0.00679200 
      47      -6.13064019       0.00019311       2.05274983       0.00129000       0.00035500      -0.00073800 
      47      -4.09266872      -4.04764871       4.08822901      -0.00200700       0.00409400       0.00020700 
      47      -2.05469724      -8.09549052       6.12370819       0.00171600       0.01000000      -0.00885600 
      47      -2.05180282      -2.02356917       0.01466367       0.00116000       0.00001100      -0.00166000 
30
Lattice="0.0010071806661114 -8.094488938710093 0.0013842509265345 2.0340698630774448 -2.0252742330050704 8.143139449354791 -8.153773129746668 2.0249569668823124 -2.0314879531199868" Properties=Z:I:1:pos:R:3:vasp_force:R:3 uuid=5438d118-3aee-4463-9a87-96628ddc996f vasp_virial="-0.0731941025220818 -0.13059118828943003 -0.1933954966376997 -0.13059118828943003 -0.17088584870921036 -0.2526327366865133 -0.1933954966376997 -0.2526327366865133 0.10003519052848192" vasp_energy=-108.34856766 pbc="T T T"
      46      -2.04979729      -0.00041098       2.04752658      -0.00132600       0.00324000       0.00083300 
      46      -0.01182582      -4.04825279       4.08300576      -0.00755300      -0.00314000       0.00123200 
      46      -6.12762748      -6.07113764       4.08699699      -0.00233600       0.00333300       0.00129400 
      46      -4.09066319      -2.02449052       6.12109192      -0.00218900       0.00351200       0.00153100 
      46      -4.08676159      -4.04705810       0.01343165      -0.00190100       0.00418800       0.00139700 
      46      -2.03989942      -6.06867608       4.06159775       0.05949000      -0.01731400       0.01211500 
      46       0.00649821      -2.02437169       6.09804297       0.00145100      -0.00366300      -0.00144500 
      46      -6.10930345      -4.04725654       6.10203420       0.00187400      -0.00317400      -0.00157200 
      46      -6.10540184      -6.06982412      -0.00562607       0.00183800      -0.00254700      -0.00103800 
      46      -4.06843755      -2.02317699       2.02846886       0.00104600      -0.00254700      -0.00049900 
      47      -4.06542490      -8.09450771       4.06271605      -0.00731100      -0.00735900       0.00118300 
      47      -2.02846061      -4.04786059       6.09681098      -0.00047700      -0.00165600       0.00101800 
      47      -2.02455900      -6.07042817      -0.01084929      -0.00141300      -0.00118200       0.00039200 
      47       0.01240529      -2.02378105       2.02324564      -0.00115100      -0.00050900       0.00074000 
      47      -6.10339637      -4.04666590       2.02723687      -0.00204300      -0.00019500       0.00046000 
      47      -4.07789050      -6.07140962       6.10956402      -0.00588300       0.00079900       0.00640000 
      47      -4.07499607       0.00051174       0.00051950      -0.00107000       0.00066700       0.00042200 
      47      -2.03702460      -4.04733008       2.03599868      -0.00025100       0.00483400      -0.00383000 
      47       0.00094687      -8.09517189       4.07147787      -0.01024400       0.01116100       0.00078800 
      47      -6.11586197      -2.02356780       4.07408484      -0.00143000       0.00036800       0.00064500 
      47      -0.00237289      -0.00002013       0.00191059       0.00081000      -0.00090800      -0.00025300 
      47      -6.11817455      -2.02290498       0.00590182       0.00095100      -0.00034100      -0.00099200 
      47      -4.08020308      -6.07074680       2.04138100      -0.00836100      -0.00068400      -0.01075200 
      47      -2.04323879      -2.02409967       4.07547593       0.00172300      -0.00127100      -0.00048100 
      47      -0.00526732      -6.07194149       6.11095511      -0.00744100      -0.00154000      -0.00945200 
      47      -0.01383135      -6.07141098       2.05014285      -0.00408600       0.00099200       0.00645200 
      47      -6.13064019       0.00019311       2.05274983       0.00106000       0.00010600      -0.00095700 
      47      -4.09266872      -4.04764871       4.08822901      -0.00729100       0.00999400      -0.00029900 
      47      -2.05469724      -8.09549052       6.12370819       0.00217100       0.00451700      -0.00388200 
      47      -2.05180282      -2.02356917       0.01466367       0.00133900       0.00031800      -0.00145000 
30
Lattice="0.0010071806661114 -8.094488938710093 0.0013842509265345 2.0340698630774448 -2.0252742330050704 8.143139449354791 -8.153773129746668 2.0249569668823124 -2.0314879531199868" Properties=Z:I:1:pos:R:3:vasp_force:R:3 uuid=4c24a1a1-6754-4c92-88ca-1d0146921f68 vasp_virial="-0.0731091723244757 -0.13771588819971908 -0.2017532571947142 -0.13771588819971908 -0.17370427304458302 -0.25074225339905915 -0.2017532571947142 -0.25074225339905915 0.09812583386378194" vasp_energy=-108.34861072 pbc="T T T"
      46      -2.04979729      -0.00041098       2.04752658      -0.00117300       0.00382800       0.00082300 
      46      -0.01182582      -4.04825279       4.08300576       0.00291400       0.00850500       0.00137400 
      46      -6.12762748      -6.07113764       4.08699699      -0.00138500       0.00315100       0.00168000 
      46      -4.09066319      -2.02449052       6.12109192      -0.00186000       0.00325900       0.00175000 
      46      -4.08676159      -4.04705810       0.01343165      -0.00201000       0.00415900       0.00204600 
      46      -2.02103275      -6.07336154       4.06629833      -0.05528600       0.00970100      -0.01485800 
      46       0.00649821      -2.02437169       6.09804297       0.00193700      -0.00453100      -0.00166000 
      46      -6.10930345      -4.04725654       6.10203420       0.00239400      -0.00358400      -0.00170200 
      46      -6.10540184      -6.06982412      -0.00562607       0.00231300      -0.00303100      -0.00106300 
      46      -4.06843755      -2.02317699       2.02846886       0.00161200      -0.00297700      -0.00058100 
      47      -4.06542490      -8.09450771       4.06271605       0.00348000       0.00509500       0.00097000 
      47      -2.02846061      -4.04786059       6.09681098      -0.00189100      -0.00116100       0.00074600 
      47      -2.02455900      -6.07042817      -0.01084929      -0.00144500      -0.00120900       0.00097100 
      47       0.01240529      -2.02378105       2.02324564      -0.00091900      -0.00072000       0.00094400 
      47      -6.10339637      -4.04666590       2.02723687      -0.00079600      -0.00033900       0.00079200 
      47      -4.07789050      -6.07140962       6.10956402       0.00331400       0.00133000      -0.00494500 
      47      -4.07499607       0.00051174       0.00051950      -0.00129100       0.00078200       0.00055900 
      47      -2.03702460      -4.04733008       2.03599868      -0.00191800      -0.00316000       0.00416400 
      47       0.00094687      -8.09517189       4.07147787       0.00881700      -0.00960800       0.00030400 
      47      -6.11586197      -2.02356780       4.07408484      -0.00157300       0.00048300       0.00088400 
      47      -0.00237289      -0.00002013       0.00191059       0.00103600      -0.00060100      -0.00062900 
      47      -6.11817455      -2.02290498       0.00590182       0.00102300      -0.00019800      -0.00126600 
      47      -4.08020308      -6.07074680       2.04138100       0.01003600      -0.00015900       0.00834800 
      47      -2.04323879      -2.02409967       4.07547593       0.00110900      -0.00124700      -0.00069800 
      47      -0.00526732      -6.07194149       6.11095511       0.01071700      -0.00098100       0.00944600 
      47      -0.01383135      -6.07141098       2.05014285       0.00787300       0.00169200      -0.00820700 
      47      -6.13064019       0.00019311       2.05274983       0.00168100       0.00086200      -0.00080700 
      47      -4.09266872      -4.04764871       4.08822901       0.00963600      -0.00789500      -0.00096200 
      47      -2.05469724      -8.09549052       6.12370819       0.00056700      -0.00201500       0.00284200 
      47      -2.05180282      -2.02356917       0.01466367       0.00109000       0.00056800      -0.00126700 
30
Lattice="0.0010071806661114 -8.094488938710093 0.0013842509265345 2.0340698630774448 -2.0252742330050704 8.143139449354791 -8.153773129746668 2.0249569668823124 -2.0314879531199868" Properties=Z:I:1:pos:R:3:vasp_force:R:3 uuid=1d89309d-39a2-4738-a9d1-d8169ec3d498 vasp_virial="-0.06705710935432294 -0.13780396396019948 -0.19773322784135908 -0.13780396396019948 -0.16850151205049113 -0.2482132208481221 -0.19773322784135908 -0.2482132208481221 0.10065486641471898" vasp_energy=-108.34859762 pbc="T T T"
      46      -2.04979729      -0.00041098       2.04752658      -0.00135200       0.00458800       0.00073000 
      46      -0.01182582      -4.04825279       4.08300576      -0.00280800       0.00232200       0.00120100 
      46      -6.12762748      -6.07113764       4.08699699       0.00581900      -0.00347600       0.00125400 
      46      -4.09066319      -2.02449052       6.12109192      -0.00222600      -0.00363500       0.00960000 
      46      -4.08676159      -4.04705810       0.01343165      -0.00203100       0.00388900       0.00120100 
      46      -2.03046608      -6.07101881       4.06394804      -0.00701900      -0.01159900      -0.00106400 
      46       0.00649821      -2.02437169       6.09804297       0.00182800      -0.00394300      -0.00158700 
      46      -6.10930345      -4.04725654       6.10203420       0.00222100      -0.00347300      -0.00161800 
      46      -6.10540184      -6.06982412      -0.00562607       0.00211300      -0.00262700      -0.00095200 
      46      -4.06843755      -2.02317699       2.02846886       0.00125300      -0.01081800      -0.00935800 
      47      -4.06643083      -0.01001877       4.06133351      -0.00154700       0.05934400       0.00158100 
      47      -2.02846061      -4.04786059       6.09681098      -0.00114800      -0.00182300       0.00101400 
      47      -2.02455900      -6.07042817      -0.01084929      -0.00127700      -0.00121100       0.00070200 
      47       0.01240529      -2.02378105       2.02324564      -0.00097000      -0.00063100       0.00096600 
      47      -6.10339637      -4.04666590       2.02723687      -0.00126700      -0.00069600       0.00063800 
      47      -4.07789050      -6.07140962       6.10956402      -0.00117900      -0.00654500      -0.00821200 
      47      -4.07499607       0.00051174       0.00051950      -0.00110800       0.00089400       0.00066500 
      47      -2.03702460      -4.04733008       2.03599868      -0.00107600       0.00050900       0.00016700 
      47       0.00094687      -8.09517189       4.07147787      -0.00070500       0.00117500       0.00058200 
      47      -6.11586197      -2.02356780       4.07408484      -0.01051300      -0.00736900       0.00079200 
      47      -0.00237289      -0.00002013       0.00191059       0.00099200       0.00036900      -0.00043300 
      47      -6.11817455      -2.02290498       0.00590182       0.00099000      -0.00051700      -0.00106700 
      47      -4.08020308      -6.07074680       2.04138100       0.00114500      -0.00907200       0.00867000 
      47      -2.04323879      -2.02409967       4.07547593       0.01139900      -0.01005600      -0.00052900 
      47      -0.00526732      -6.07194149       6.11095511       0.00158800      -0.00152000      -0.00028300 
      47      -0.01383135      -6.07141098       2.05014285       0.00176400       0.00131600      -0.00094200 
      47      -6.13064019       0.00019311       2.05274983       0.00140000       0.00176300      -0.00097800 
      47      -4.09266872      -4.04764871       4.08822901       0.00132900      -0.00015400      -0.00068900 
      47      -2.05469724      -8.09549052       6.12370819       0.00130500       0.00255700      -0.00057400 
      47      -2.05180282      -2.02356917       0.01466367       0.00108100       0.00043900      -0.00147700 
30
Lattice="0.0010071806661114 -8.094488938710093 0.0013842509265345 2.0340698630774448 -2.0252742330050704 8.143139449354791 -8.153773129746668 2.0249569668823124 -2.0314879531199868" Properties=Z:I:1:pos:R:3:vasp_force:R:3 uuid=a52d3f65-bccd-460f-94fd-8bc7a6a70634 vasp_virial="-0.07084122149210556 -0.12977334194211212 -0.19723308334434544 -0.12977334194211212 -0.16948607323014697 -0.25622496948896367 -0.19723308334434544 -0.25622496948896367 0.10499574318125268" vasp_energy=-108.34857899 pbc="T T T"
      46      -2.04979729      -0.00041098       2.04752658      -0.00114700       0.00244500       0.00091100 
      46      -0.01182582      -4.04825279       4.08300576      -0.00188300       0.00285000       0.00137700 
      46      -6.12762748      -6.07113764       4.08699699      -0.00982700       0.01016000       0.00168900 
      46      -4.09066319      -2.02449052       6.12109192      -0.00179000       0.01017400      -0.00604000 
      46      -4.08676159      -4.04705810       0.01343165      -0.00184400       0.00444600       0.00221000 
      46      -2.03046608      -6.07101881       4.06394804       0.01009300       0.00420800      -0.00084900 
      46       0.00649821      -2.02437169       6.09804297       0.00162700      -0.00426600      -0.00157200 
      46      -6.10930345      -4.04725654       6.10203420       0.00210000      -0.00329600      -0.00171300 
      46      -6.10540184      -6.06982412      -0.00562607       0.00210100      -0.00297000      -0.00119700 
      46      -4.06843755      -2.02317699       2.02846886       0.00146000       0.00504600       0.00788800 
      47      -4.06542614      -8.08450771       4.06271434      -0.00207400      -0.06105900       0.00091300 
      47      -2.02846061      -4.04786059       6.09681098      -0.00116400      -0.00097900       0.00073100 
      47      -2.02455900      -6.07042817      -0.01084929      -0.00152100      -0.00119300       0.00060400 
      47       0.01240529      -2.02378105       2.02324564      -0.00104600      -0.00061300       0.00067000 
      47      -6.10339637      -4.04666590       2.02723687      -0.00150900       0.00014800       0.00056800 
      47      -4.07789050      -6.07140962       6.10956402      -0.00126500       0.00889300       0.00979100 
      47      -4.07499607       0.00051174       0.00051950      -0.00120800       0.00054000       0.00027800 
      47      -2.03702460      -4.04733008       2.03599868      -0.00109000       0.00110600       0.00017800 
      47       0.00094687      -8.09517189       4.07147787      -0.00106100       0.00083000       0.00050300 
      47      -6.11586197      -2.02356780       4.07408484       0.00724600       0.00798600       0.00070100 
      47      -0.00237289      -0.00002013       0.00191059       0.00093200      -0.00189100      -0.00052500 
      47      -6.11817455      -2.02290498       0.00590182       0.00104000      -0.00003900      -0.00123600 
      47      -4.08020308      -6.07074680       2.04138100       0.00095700       0.00848500      -0.01101700 
      47      -2.04323879      -2.02409967       4.07547593      -0.00817600       0.00728400      -0.00069600 
      47      -0.00526732      -6.07194149       6.11095511       0.00137100      -0.00104300      -0.00021200 
      47      -0.01383135      -6.07141098       2.05014285       0.00197200       0.00134000      -0.00067200 
      47      -6.13064019       0.00019311       2.05274983       0.00141300      -0.00080600      -0.00078600 
      47      -4.09266872      -4.04764871       4.08822901       0.00142000       0.00181000      -0.00063900 
      47      -2.05469724      -8.09549052       6.12370819       0.00148500      -0.00002900      -0.00058100 
      47      -2.05180282      -2.02356917       0.01466367       0.00139000       0.00043000      -0.00127600 
30
Lattice="0.0010071806661114 -8.094488938710093 0.0013842509265345 2.0340698630774448 -2.0252742330050704 8.143139449354791 -8.153773129746668 2.0249569668823124 -2.0314879531199868" Properties=Z:I:1:pos:R:3:vasp_force:R:3 uuid=0984d94a-cec6-484c-8f58-7c0a9a183e42 vasp_virial="-0.07838742682755076 -0.13539446279848583 -0.19484245555987756 -0.13539446279848583 -0.17846350967339858 -0.2482478220397394 -0.19484245555987756 -0.2482478220397394 0.08912323291753595" vasp_energy=-108.34859931 pbc="T T T"
      46      -2.04979729      -0.00041098       2.04752658      -0.00845900       0.00383600       0.00670100 
      46      -0.01182582      -4.04825279       4.08300576      -0.00221500       0.00271100       0.00114100 
      46      -6.12762748      -6.07113764       4.08699699       0.00153800      -0.00007200       0.00061200 
      46      -4.09066319      -2.02449052       6.12109192      -0.00240600      -0.00590700       0.01028400 
      46      -4.08676159      -4.04705810       0.01343165      -0.00185600       0.00466100       0.00201600 
      46      -2.03046608      -6.07101881       4.06394804       0.00125900      -0.00362600      -0.00165100 
      46       0.00649821      -2.02437169       6.09804297       0.00204900      -0.00416200      -0.00159000 
      46      -6.10930345      -4.04725654       6.10203420       0.00226300      -0.00343300      -0.00153000 
      46      -6.10540184      -6.06982412      -0.00562607       0.00219100      -0.00294800      -0.00045000 
      46      -4.06843755      -2.02317699       2.02846886       0.00119800       0.00351000       0.00485600 
      47      -4.06306908      -8.09685335       4.07214728      -0.01628100       0.01326000      -0.05660700 
      47      -2.02846061      -4.04786059       6.09681098      -0.00108400      -0.00157600       0.00099100 
      47      -2.02455900      -6.07042817      -0.01084929      -0.00143600      -0.00136600       0.00076900 
      47       0.01240529      -2.02378105       2.02324564      -0.00112300      -0.00071200       0.00097200 
      47      -6.10339637      -4.04666590       2.02723687      -0.00132700      -0.00052200       0.00071000 
      47      -4.07789050      -6.07140962       6.10956402      -0.00166900       0.00792200       0.00598700 
      47      -4.07499607       0.00051174       0.00051950      -0.00103800       0.00066200       0.00128700 
      47      -2.03702460      -4.04733008       2.03599868      -0.00112100       0.00072400       0.00019700 
      47       0.00094687      -8.09517189       4.07147787      -0.00057300       0.00102300       0.00042000 
      47      -6.11586197      -2.02356780       4.07408484      -0.00181500       0.00071600      -0.00049700 
      47      -0.00237289      -0.00002013       0.00191059      -0.00515700      -0.00053600       0.00445700 
      47      -6.11817455      -2.02290498       0.00590182       0.00110500      -0.00048000      -0.00074300 
      47      -4.08020308      -6.07074680       2.04138100       0.00087300      -0.01166500       0.00950700 
      47      -2.04323879      -2.02409967       4.07547593       0.00590600      -0.00574300      -0.00174800 
      47      -0.00526732      -6.07194149       6.11095511       0.00165600      -0.00135000      -0.00034600 
      47      -0.01383135      -6.07141098       2.05014285       0.00165100       0.00146400      -0.00074200 
      47      -6.13064019       0.00019311       2.05274983       0.01156700       0.00084900       0.00817300 
      47      -4.09266872      -4.04764871       4.08822901       0.00132000       0.00061700      -0.00096100 
      47      -2.05469724      -8.09549052       6.12370819       0.01196900       0.00159000       0.00920300 
      47      -2.05180282      -2.02356917       0.01466367       0.00101400       0.00055200      -0.00141700 
30
Lattice="0.0010071806661114 -8.094488938710093 0.0013842509265345 2.0340698630774448 -2.0252742330050704 8.143139449354791 -8.153773129746668 2.0249569668823124 -2.0314879531199868" Properties=Z:I:1:pos:R:3:vasp_force:R:3 uuid=dfe287f5-3017-48d4-a219-b34743b32d82 vasp_virial="-0.0672489886896552 -0.13223002654694027 -0.1995639454342016 -0.13223002654694027 -0.16648835181093927 -0.25630989968656975 -0.1995639454342016 -0.25630989968656975 0.1092611264388032" vasp_energy=-108.34857372 pbc="T T T"
      46      -2.04979729      -0.00041098       2.04752658       0.00619700       0.00317400      -0.00521000 
      46      -0.01182582      -4.04825279       4.08300576      -0.00246500       0.00245200       0.00141700 
      46      -6.12762748      -6.07113764       4.08699699      -0.00525000       0.00656800       0.00233500 
      46      -4.09066319      -2.02449052       6.12109192      -0.00161400       0.01222400      -0.00670000 
      46      -4.08676159      -4.04705810       0.01343165      -0.00199700       0.00367100       0.00137600 
      46      -2.03046608      -6.07101881       4.06394804       0.00145000      -0.00404000      -0.00026900 
      46       0.00649821      -2.02437169       6.09804297       0.00141300      -0.00405300      -0.00158000 
      46      -6.10930345      -4.04725654       6.10203420       0.00206700      -0.00334000      -0.00181400 
      46      -6.10540184      -6.06982412      -0.00562607       0.00202600      -0.00265400      -0.00171200 
      46      -4.06843755      -2.02317699       2.02846886       0.00153300      -0.00922000      -0.00609000 
      47      -4.06778072      -8.09216208       4.05328482       0.01227600      -0.01480000       0.05957200 
      47      -2.02846061      -4.04786059       6.09681098      -0.00122300      -0.00123300       0.00074000 
      47      -2.02455900      -6.07042817      -0.01084929      -0.00135400      -0.00104400       0.00052800 
      47       0.01240529      -2.02378105       2.02324564      -0.00088900      -0.00053800       0.00065400 
      47      -6.10339637      -4.04666590       2.02723687      -0.00144200      -0.00003200       0.00048900 
      47      -4.07789050      -6.07140962       6.10956402      -0.00077000      -0.00563600      -0.00466700 
      47      -4.07499607       0.00051174       0.00051950      -0.00125600       0.00076300      -0.00037100 
      47      -2.03702460      -4.04733008       2.03599868      -0.00102800       0.00088400       0.00012600 
      47       0.00094687      -8.09517189       4.07147787      -0.00117500       0.00097700       0.00064500 
      47      -6.11586197      -2.02356780       4.07408484      -0.00109100       0.00014500       0.00196500 
      47      -0.00237289      -0.00002013       0.00191059       0.00692000      -0.00097700      -0.00533000 