  32
   1   1
     7.854255400438887    -0.109307668140761     0.053424115355200
    -0.094170286572391     7.798474819291547     0.023430554233089
     0.031666800301572     0.043715271075555     7.132629673021389
   1   2
     0.031668804593773     0.000141841775458    -0.000785585524405
    -0.000373062173454    -0.033371179015645     0.001203213803643
    -0.000069413806962     0.000344826674123     0.033633333246887
   1   3
    -0.131809924717815     0.000736018373991    -0.000083421802667
     0.000317953747327     0.035633227911274    -0.007457075196315
     0.000524147468696    -0.008138414810985    -0.007983658926032
   1   4
     0.031668804593773     0.000141841775458    -0.000785585524405
    -0.000373062173454    -0.033371179015645     0.001203213803643
    -0.000069413806962     0.000344826674123     0.033633333246887
   1   5
     0.050337738309041     0.002996924464986    -0.000495751279720
     0.002298022112683     0.063765852643548     0.017575847176056
     0.000329340751842     0.016815181569513    -0.111507695516494
   1   6
     0.050337738309041     0.002996924464986    -0.000495751279720
     0.002298022112683     0.063765852643548     0.017575847176056
     0.000329340751842     0.016815181569513    -0.111507695516494
   1   7
     0.098287544547702     0.002260100879382    -0.000851538905542
     0.001969285302006     0.099650732564447    -0.016340660977975
    -0.000259541998437    -0.016794704678130     0.070552465635460
   1   8
     0.098287544547702     0.002260100879382    -0.000851538905542
     0.001969285302006     0.099650732564447    -0.016340660977975
    -0.000259541998437    -0.016794704678130     0.070552465635460
   1   9
    -0.062341994302513     0.002261436223750    -0.000466077277280
     0.001686952148901     0.032591041053682    -0.049207976950168
     0.000110999777247    -0.057588424058685     0.013673845283681
   1  10
     0.038641409282673    -0.000736742735941     0.001768652264607
    -0.001054689107033    -0.940892966437352     0.901387620456714
     0.002107716274700     1.061385196233786    -0.933239143119112
   1  11
     0.045210899531084     0.004282025695691    -0.000349977924437
     0.001168729509508    -0.974219112375247    -0.888995473309213
    -0.001178002608900    -1.061619550440430    -0.960259534399166
   1  12
    -0.052615780040081     0.000948695554500    -0.001996701208455
     0.002800647300497     0.020811726750231     0.016881154924682
     0.000359013603822     0.033873603596195     0.008534849207811
   1  13
    -0.062341994302513     0.002261436223750    -0.000466077277280
     0.001686952148901     0.032591041053682    -0.049207976950168
     0.000110999777247    -0.057588424058685     0.013673845283681
   1  14
    -0.052615780040081     0.000948695554500    -0.001996701208455
     0.002800647300497     0.020811726750231     0.016881154924682
     0.000359013603822     0.033873603596195     0.008534849207811
   1  15
     0.045210899531084     0.004282025695691    -0.000349977924437
     0.001168729509508    -0.974219112375247    -0.888995473309213
    -0.001178002608900    -1.061619550440430    -0.960259534399166
   1  16
     0.038641409282673    -0.000736742735941     0.001768652264607
    -0.001054689107033    -0.940892966437352     0.901387620456714
     0.002107716274700     1.061385196233786    -0.933239143119112
   1  17
    -0.956368660437356    -0.013164254549479    -0.912602179208105
     0.006005684516385     0.044780318212858     0.000754662125997
    -1.048012803817264     0.000245272164731    -0.969603949914965
   1  18
     0.018356263021049    -0.026113311097541     0.005475265175592
    -0.054246156663831    -0.062838670434607     0.000755038105097
     0.024933086182912    -0.000855073356476     0.022540652880529
   1  19
    -0.933589552343514     0.014305361784240     0.890336337401965
    -0.004015727084792     0.046093046502955     0.003302266395241
     1.027817343708974     0.004978438768338    -0.946623183532865
   1  20
     0.017436759877411     0.031405668622109    -0.006103818477670
     0.056652511560182    -0.062542349186471     0.000470974687183
    -0.024167546161946    -0.000080191901667     0.022172630578277
   1  21
     0.017436759877411     0.031405668622109    -0.006103818477670
     0.056652511560182    -0.062542349186471     0.000470974687183
    -0.024167546161946    -0.000080191901667     0.022172630578277
   1  22
    -0.933589552343515     0.014305361784240     0.890336337401965
    -0.004015727084792     0.046093046502955     0.003302266395241
     1.027817343708974     0.004978438768338    -0.946623183532865
   1  23
     0.018356263021049    -0.026113311097541     0.005475265175592
    -0.054246156663831    -0.062838670434607     0.000755038105097
     0.024933086182912    -0.000855073356476     0.022540652880529
   1  24
    -0.956368660437356    -0.013164254549479    -0.912602179208105
     0.006005684516385     0.044780318212858     0.000754662125997
    -1.048012803817264     0.000245272164731    -0.969603949914965
   1  25
    -1.063505649142462    -1.214507430666077     0.003324227635985
    -1.214769128487733    -1.061381455147531     0.002787933428888
     0.004334029841232     0.001211297961693     0.122092068172965
   1  26
    -1.063505649142462    -1.214507430666077     0.003324227635985
    -1.214769128487733    -1.061381455147531     0.002787933428888
     0.004334029841232     0.001211297961693     0.122092068172965
   1  27
    -1.088139139454639     1.247032980356465    -0.002448804832764
     1.246682729799030    -1.086349337695272     0.000372175619568
    -0.002468340690777     0.000138405123066     0.125687672149969
   1  28
    -1.088139139454639     1.247032980356465    -0.002448804832764
     1.246682729799030    -1.086349337695272     0.000372175619568
    -0.002468340690777     0.000138405123066     0.125687672149969
   1  29
    -0.002207022850255     0.001606425950768    -0.000852071402268
     0.001071985315774    -0.001437480521828    -0.022019881621541
    -0.000044460214841    -0.020269176994101    -0.030546381628802
   1  30
    -0.002606802959249    -0.007400819814161     0.022878378121243
    -0.024581235119514    -0.001723774150896     0.023059052796339
     0.007397332120092     0.020510495949608    -0.029257772691578
   1  31
    -0.002207022850255     0.001606425950768    -0.000852071402268
     0.001071985315774    -0.001437480521828    -0.022019881621541
    -0.000044460214841    -0.020269176994101    -0.030546381628802
   1  32
    -0.002178918529156     0.010533028119280    -0.024120025081459
     0.026680612007291    -0.001706840258622     0.023116296761393
    -0.007173542279134     0.020343561648054    -0.029601451343346
   2   1
     0.031668804593773     0.000141841775458    -0.000785585524405
    -0.000373062173454    -0.033371179015645     0.001203213803643
    -0.000069413806962     0.000344826674123     0.033633333246887
   2   2
     7.854255400438887    -0.109307668140761     0.053424115355200
    -0.094170286572391     7.798474819291547     0.023430554233089
     0.031666800301572     0.043715271075555     7.132629673021387
   2   3
     0.031668804593773     0.000141841775458    -0.000785585524405
    -0.000373062173454    -0.033371179015645     0.001203213803643
    -0.000069413806962     0.000344826674123     0.033633333246887
   2   4
    -0.131809924717815     0.000736018373991    -0.000083421802667
     0.000317953747327     0.035633227911274    -0.007457075196315
     0.000524147468696    -0.008138414810985    -0.007983658926031
   2   5
     0.098287544547702     0.002260100879382    -0.000851538905542
     0.001969285302006     0.099650732564447    -0.016340660977975
    -0.000259541998437    -0.016794704678130     0.070552465635460
   2   6
     0.050337738309041     0.002996924464986    -0.000495751279720
     0.002298022112683     0.063765852643548     0.017575847176056
     0.000329340751842     0.016815181569513    -0.111507695516494
   2   7
     0.050337738309041     0.002996924464986    -0.000495751279720
     0.002298022112683     0.063765852643548     0.017575847176056
     0.000329340751842     0.016815181569513    -0.111507695516494
   2   8
     0.098287544547702     0.002260100879382    -0.000851538905542
     0.001969285302006     0.099650732564447    -0.016340660977975
    -0.000259541998437    -0.016794704678130     0.070552465635460
   2   9
    -0.052615780040081     0.000948695554500    -0.001996701208455
     0.002800647300497     0.020811726750231     0.016881154924682
     0.000359013603822     0.033873603596195     0.008534849207811
   2  10
    -0.062341994302513     0.002261436223750    -0.000466077277280
     0.001686952148901     0.032591041053682    -0.049207976950168
     0.000110999777247    -0.057588424058685     0.013673845283681
   2  11
     0.038641409282673    -0.000736742735941     0.001768652264607
    -0.001054689107033    -0.940892966437352     0.901387620456714
     0.002107716274700     1.061385196233785    -0.933239143119112
   2  12
     0.045210899531084     0.004282025695691    -0.000349977924437
     0.001168729509508    -0.974219112375247    -0.888995473309213
    -0.001178002608900    -1.061619550440430    -0.960259534399166
   2  13
     0.038641409282673    -0.000736742735941     0.001768652264607
    -0.001054689107033    -0.940892966437352     0.901387620456714
     0.002107716274700     1.061385196233785    -0.933239143119112
   2  14
    -0.062341994302513     0.002261436223750    -0.000466077277280
     0.001686952148901     0.032591041053682    -0.049207976950168
     0.000110999777247    -0.057588424058685     0.013673845283681
   2  15
    -0.052615780040081     0.000948695554500    -0.001996701208455
     0.002800647300497     0.020811726750231     0.016881154924682
     0.000359013603822     0.033873603596195     0.008534849207811
   2  16
     0.045210899531084     0.004282025695691    -0.000349977924437
     0.001168729509508    -0.974219112375247    -0.888995473309213
    -0.001178002608900    -1.061619550440430    -0.960259534399166
   2  17
     0.017436759877411     0.031405668622109    -0.006103818477670
     0.056652511560182    -0.062542349186471     0.000470974687183
    -0.024167546161946    -0.000080191901667     0.022172630578277
   2  18
    -0.956368660437356    -0.013164254549479    -0.912602179208105
     0.006005684516385     0.044780318212858     0.000754662125997
    -1.048012803817264     0.000245272164731    -0.969603949914965
   2  19
     0.018356263021049    -0.026113311097541     0.005475265175592
    -0.054246156663831    -0.062838670434607     0.000755038105097
     0.024933086182912    -0.000855073356476     0.022540652880529
   2  20
    -0.933589552343515     0.014305361784240     0.890336337401965
    -0.004015727084792     0.046093046502955     0.003302266395241
     1.027817343708974     0.004978438768338    -0.946623183532865
   2  21
    -0.956368660437356    -0.013164254549479    -0.912602179208105
     0.006005684516385     0.044780318212858     0.000754662125997
    -1.048012803817264     0.000245272164731    -0.969603949914965
   2  22
     0.017436759877411     0.031405668622109    -0.006103818477670
     0.056652511560182    -0.062542349186471     0.000470974687183
    -0.024167546161946    -0.000080191901667     0.022172630578277
   2  23
    -0.933589552343514     0.014305361784240     0.890336337401965
    -0.004015727084792     0.046093046502955     0.003302266395241
     1.027817343708974     0.004978438768338    -0.946623183532865
   2  24
     0.018356263021049    -0.026113311097541     0.005475265175592
    -0.054246156663831    -0.062838670434607     0.000755038105097
     0.024933086182912    -0.000855073356476     0.022540652880529
   2  25
    -1.088139139454639     1.247032980356465    -0.002448804832764
     1.246682729799030    -1.086349337695272     0.000372175619568
    -0.002468340690777     0.000138405123066     0.125687672149969
   2  26
    -1.063505649142462    -1.214507430666077     0.003324227635985
    -1.214769128487733    -1.061381455147531     0.002787933428888
     0.004334029841232     0.001211297961693     0.122092068172965
   2  27
    -1.063505649142462    -1.214507430666077     0.003324227635985
    -1.214769128487733    -1.061381455147531     0.002787933428888
     0.004334029841232     0.001211297961693     0.122092068172965
   2  28
    -1.088139139454639     1.247032980356465    -0.002448804832764
     1.246682729799030    -1.086349337695272     0.000372175619568
    -0.002468340690777     0.000138405123066     0.125687672149969
   2  29
    -0.002178918529156     0.010533028119280    -0.024120025081459
     0.026680612007291    -0.001706840258622     0.023116296761393
    -0.007173542279134     0.020343561648054    -0.029601451343346
   2  30
    -0.002207022850255     0.001606425950768    -0.000852071402268
     0.001071985315774    -0.001437480521828    -0.022019881621541
    -0.000044460214841    -0.020269176994101    -0.030546381628802
   2  31
    -0.002606802959249    -0.007400819814161     0.022878378121243
    -0.024581235119514    -0.001723774150896     0.023059052796339
     0.007397332120092     0.020510495949608    -0.029257772691578
   2  32
    -0.002207022850255     0.001606425950768    -0.000852071402268
     0.001071985315774    -0.001437480521828    -0.022019881621541
    -0.000044460214841    -0.020269176994101    -0.030546381628802
   3   1
    -0.131809924717815     0.000736018373991    -0.000083421802667
     0.000317953747327     0.035633227911274    -0.007457075196315
     0.000524147468696    -0.008138414810985    -0.007983658926031
   3   2
     0.031668804593773     0.000141841775458    -0.000785585524405
    -0.000373062173454    -0.033371179015645     0.001203213803643
    -0.000069413806962     0.000344826674123     0.033633333246887
   3   3
     7.854255400438887    -0.109307668140761     0.053424115355200
    -0.094170286572391     7.798474819291547     0.023430554233089
     0.031666800301572     0.043715271075555     7.132629673021387
   3   4
     0.031668804593773     0.000141841775458    -0.000785585524405
    -0.000373062173454    -0.033371179015645     0.001203213803643
    -0.000069413806962     0.000344826674123     0.033633333246887
   3   5
     0.098287544547702     0.002260100879382    -0.000851538905542
     0.001969285302006     0.099650732564447    -0.016340660977975
    -0.000259541998437    -0.016794704678130     0.070552465635460
   3   6
     0.098287544547702     0.002260100879382    -0.000851538905542
     0.001969285302006     0.099650732564447    -0.016340660977975
    -0.000259541998437    -0.016794704678130     0.070552465635460
   3   7
     0.050337738309041     0.002996924464986    -0.000495751279720
     0.002298022112683     0.063765852643548     0.017575847176056
     0.000329340751842     0.016815181569513    -0.111507695516494
   3   8
     0.050337738309041     0.002996924464986    -0.000495751279720
     0.002298022112683     0.063765852643548     0.017575847176056
     0.000329340751842     0.016815181569513    -0.111507695516494
   3   9
     0.045210899531084     0.004282025695691    -0.000349977924437
     0.001168729509508    -0.974219112375247    -0.888995473309213
    -0.001178002608900    -1.061619550440430    -0.960259534399166
   3  10
    -0.052615780040081     0.000948695554500    -0.001996701208455
     0.002800647300497     0.020811726750231     0.016881154924682
     0.000359013603822     0.033873603596195     0.008534849207811
   3  11
    -0.062341994302513     0.002261436223750    -0.000466077277280
     0.001686952148901     0.032591041053682    -0.049207976950168
     0.000110999777247    -0.057588424058685     0.013673845283681
   3  12
     0.038641409282673    -0.000736742735941     0.001768652264607
    -0.001054689107033    -0.940892966437352     0.901387620456714
     0.002107716274700     1.061385196233785    -0.933239143119112
   3  13
     0.045210899531084     0.004282025695691    -0.000349977924437
     0.001168729509508    -0.974219112375247    -0.888995473309213
    -0.001178002608900    -1.061619550440430    -0.960259534399166
   3  14
     0.038641409282673    -0.000736742735941     0.001768652264607
    -0.001054689107033    -0.940892966437352     0.901387620456714
     0.002107716274700     1.061385196233785    -0.933239143119112
   3  15
    -0.062341994302513     0.002261436223750    -0.000466077277280
     0.001686952148901     0.032591041053682    -0.049207976950168
     0.000110999777247    -0.057588424058685     0.013673845283681
   3  16
    -0.052615780040081     0.000948695554500    -0.001996701208455
     0.002800647300497     0.020811726750231     0.016881154924682
     0.000359013603822     0.033873603596195     0.008534849207811
   3  17
    -0.933589552343514     0.014305361784240     0.890336337401965
    -0.004015727084792     0.046093046502955     0.003302266395241
     1.027817343708974     0.004978438768338    -0.946623183532865
   3  18
     0.017436759877411     0.031405668622109    -0.006103818477670
     0.056652511560182    -0.062542349186471     0.000470974687183
    -0.024167546161946    -0.000080191901667     0.022172630578277
   3  19
    -0.956368660437356    -0.013164254549479    -0.912602179208105
     0.006005684516385     0.044780318212858     0.000754662125997
    -1.048012803817264     0.000245272164731    -0.969603949914965
   3  20
     0.018356263021049    -0.026113311097541     0.005475265175592
    -0.054246156663831    -0.062838670434607     0.000755038105097
     0.024933086182912    -0.000855073356476     0.022540652880529
   3  21
     0.018356263021049    -0.026113311097541     0.005475265175592
    -0.054246156663831    -0.062838670434607     0.000755038105097
     0.024933086182912    -0.000855073356476     0.022540652880529
   3  22
    -0.956368660437356    -0.013164254549479    -0.912602179208105
     0.006005684516385     0.044780318212858     0.000754662125997
    -1.048012803817264     0.000245272164731    -0.969603949914965
   3  23
     0.017436759877411     0.031405668622109    -0.006103818477670
     0.056652511560182    -0.062542349186471     0.000470974687183
    -0.024167546161946    -0.000080191901667     0.022172630578277
   3  24
    -0.933589552343515     0.014305361784240     0.890336337401965
    -0.004015727084792     0.046093046502955     0.003302266395241
     1.027817343708974     0.004978438768338    -0.946623183532865
   3  25
    -1.088139139454639     1.247032980356465    -0.002448804832764
     1.246682729799030    -1.086349337695272     0.000372175619568
    -0.002468340690777     0.000138405123066     0.125687672149969
   3  26
    -1.088139139454639     1.247032980356465    -0.002448804832764
     1.246682729799030    -1.086349337695272     0.000372175619568
    -0.002468340690777     0.000138405123066     0.125687672149969
   3  27
    -1.063505649142462    -1.214507430666077     0.003324227635985
    -1.214769128487733    -1.061381455147531     0.002787933428888
     0.004334029841232     0.001211297961693     0.122092068172965
   3  28
    -1.063505649142462    -1.214507430666077     0.003324227635985
    -1.214769128487733    -1.061381455147531     0.002787933428888
     0.004334029841232     0.001211297961693     0.122092068172965
   3  29
    -0.002207022850255     0.001606425950768    -0.000852071402268
     0.001071985315774    -0.001437480521828    -0.022019881621541
    -0.000044460214841    -0.020269176994101    -0.030546381628802
   3  30
    -0.002178918529156     0.010533028119280    -0.024120025081459
     0.026680612007291    -0.001706840258622     0.023116296761393
    -0.007173542279134     0.020343561648054    -0.029601451343346
   3  31
    -0.002207022850255     0.001606425950768    -0.000852071402268
     0.001071985315774    -0.001437480521828    -0.022019881621541
    -0.000044460214841    -0.020269176994101    -0.030546381628802
   3  32
    -0.002606802959249    -0.007400819814161     0.022878378121243
    -0.024581235119514    -0.001723774150896     0.023059052796339
     0.007397332120092     0.020510495949608    -0.029257772691578
   4   1
     0.031668804593773     0.000141841775458    -0.000785585524405
    -0.000373062173454    -0.033371179015645     0.001203213803643
    -0.000069413806962     0.000344826674123     0.033633333246887
   4   2
    -0.131809924717815     0.000736018373991    -0.000083421802667
     0.000317953747327     0.035633227911274    -0.007457075196315
     0.000524147468696    -0.008138414810985    -0.007983658926031
   4   3
     0.031668804593773     0.000141841775458    -0.000785585524405
    -0.000373062173454    -0.033371179015645     0.001203213803643
    -0.000069413806962     0.000344826674123     0.033633333246887
   4   4
     7.854255400438887    -0.109307668140761     0.053424115355200
    -0.094170286572391     7.798474819291547     0.023430554233089
     0.031666800301572     0.043715271075555     7.132629673021387
   4   5
     0.050337738309041     0.002996924464986    -0.000495751279720
     0.002298022112683     0.063765852643548     0.017575847176056
     0.000329340751842     0.016815181569513    -0.111507695516494
   4   6
     0.098287544547702     0.002260100879382    -0.000851538905542
     0.001969285302006     0.099650732564447    -0.016340660977975
    -0.000259541998437    -0.016794704678130     0.070552465635460
   4   7
     0.098287544547702     0.002260100879382    -0.000851538905542
     0.001969285302006     0.099650732564447    -0.016340660977975
    -0.000259541998437    -0.016794704678130     0.070552465635460
   4   8
     0.050337738309041     0.002996924464986    -0.000495751279720
     0.002298022112683     0.063765852643548     0.017575847176056
     0.000329340751842     0.016815181569513    -0.111507695516494
   4   9
     0.038641409282673    -0.000736742735941     0.001768652264607
    -0.001054689107033    -0.940892966437352     0.901387620456714
     0.002107716274700     1.061385196233785    -0.933239143119112
   4  10
     0.045210899531084     0.004282025695691    -0.000349977924437
     0.001168729509508    -0.974219112375247    -0.888995473309213
    -0.001178002608900    -1.061619550440430    -0.960259534399166
   4  11
    -0.052615780040081     0.000948695554500    -0.001996701208455
     0.002800647300497     0.020811726750231     0.016881154924682
     0.000359013603822     0.033873603596195     0.008534849207811
   4  12
    -0.062341994302513     0.002261436223750    -0.000466077277280
     0.001686952148901     0.032591041053682    -0.049207976950168
     0.000110999777247    -0.057588424058685     0.013673845283681
   4  13
    -0.052615780040081     0.000948695554500    -0.001996701208455
     0.002800647300497     0.020811726750231     0.016881154924682
     0.000359013603822     0.033873603596195     0.008534849207811
   4  14
     0.045210899531084     0.004282025695691    -0.000349977924437
     0.001168729509508    -0.974219112375247    -0.888995473309213
    -0.001178002608900    -1.061619550440430    -0.960259534399166
   4  15
     0.038641409282673    -0.000736742735941     0.001768652264607
    -0.001054689107033    -0.940892966437352     0.901387620456714
     0.002107716274700     1.061385196233785    -0.933239143119112
   4  16
    -0.062341994302513     0.002261436223750    -0.000466077277280
     0.001686952148901     0.032591041053682    -0.049207976950168
     0.000110999777247    -0.057588424058685     0.013673845283681
   4  17
     0.018356263021049    -0.026113311097541     0.005475265175592
    -0.054246156663831    -0.062838670434607     0.000755038105097
     0.024933086182912    -0.000855073356476     0.022540652880529
   4  18
    -0.933589552343514     0.014305361784240     0.890336337401965
    -0.004015727084792     0.046093046502955     0.003302266395241
     1.027817343708974     0.004978438768338    -0.946623183532865
   4  19
     0.017436759877411     0.031405668622109    -0.006103818477670
     0.056652511560182    -0.062542349186471     0.000470974687183
    -0.024167546161946    -0.000080191901667     0.022172630578277
   4  20
    -0.956368660437356    -0.013164254549479    -0.912602179208105
     0.006005684516385     0.044780318212858     0.000754662125997
    -1.048012803817264     0.000245272164731    -0.969603949914965
   4  21
    -0.933589552343515     0.014305361784240     0.890336337401965
    -0.004015727084792     0.046093046502955     0.003302266395241
     1.027817343708974     0.004978438768338    -0.946623183532865
   4  22
     0.018356263021049    -0.026113311097541     0.005475265175592
    -0.054246156663831    -0.062838670434607     0.000755038105097
     0.024933086182912    -0.000855073356476     0.022540652880529
   4  23
    -0.956368660437356    -0.013164254549479    -0.912602179208105
     0.006005684516385     0.044780318212858     0.000754662125997
    -1.048012803817264     0.000245272164731    -0.969603949914965
   4  24
     0.017436759877411     0.031405668622109    -0.006103818477670
     0.056652511560182    -0.062542349186471     0.000470974687183
    -0.024167546161946    -0.000080191901667     0.022172630578277
   4  25
    -1.063505649142462    -1.214507430666077     0.003324227635985
    -1.214769128487733    -1.061381455147531     0.002787933428888
     0.004334029841232     0.001211297961693     0.122092068172965
   4  26
    -1.088139139454639     1.247032980356465    -0.002448804832764
     1.246682729799030    -1.086349337695272     0.000372175619568
    -0.002468340690777     0.000138405123066     0.125687672149969
   4  27
    -1.088139139454639     1.247032980356465    -0.002448804832764
     1.246682729799030    -1.086349337695272     0.000372175619568
    -0.002468340690777     0.000138405123066     0.125687672149969
   4  28
    -1.063505649142462    -1.214507430666077     0.003324227635985
    -1.214769128487733    -1.061381455147531     0.002787933428888
     0.004334029841232     0.001211297961693     0.122092068172965
   4  29
    -0.002606802959249    -0.007400819814161     0.022878378121243
    -0.024581235119514    -0.001723774150896     0.023059052796339
     0.007397332120092     0.020510495949608    -0.029257772691578
   4  30
    -0.002207022850255     0.001606425950768    -0.000852071402268
     0.001071985315774    -0.001437480521828    -0.022019881621541
    -0.000044460214841    -0.020269176994101    -0.030546381628802
   4  31
    -0.002178918529156     0.010533028119280    -0.024120025081459
     0.026680612007291    -0.001706840258622     0.023116296761393
    -0.007173542279134     0.020343561648054    -0.029601451343346
   4  32
    -0.002207022850255     0.001606425950768    -0.000852071402268
     0.001071985315774    -0.001437480521828    -0.022019881621541
    -0.000044460214841    -0.020269176994101    -0.030546381628802
   5   1
     0.050337738309041     0.002996924464986    -0.000495751279720
     0.002298022112683     0.063765852643548     0.017575847176056
     0.000329340751842     0.016815181569513    -0.111507695516494
   5   2
     0.098287544547702     0.002260100879382    -0.000851538905542
     0.001969285302006     0.099650732564447    -0.016340660977975
    -0.000259541998437    -0.016794704678130     0.070552465635460
   5   3
     0.098287544547702     0.002260100879382    -0.000851538905542
     0.001969285302006     0.099650732564447    -0.016340660977975
    -0.000259541998437    -0.016794704678130     0.070552465635460
   5   4
     0.050337738309041     0.002996924464986    -0.000495751279720
     0.002298022112683     0.063765852643548     0.017575847176056
     0.000329340751842     0.016815181569513    -0.111507695516494
   5   5
     7.854255400438887    -0.109307668140761     0.053424115355200
    -0.094170286572391     7.798474819291547     0.023430554233089
     0.031666800301572     0.043715271075555     7.132629673021387
   5   6
     0.031668804593773     0.000141841775458    -0.000785585524405
    -0.000373062173454    -0.033371179015645     0.001203213803643
    -0.000069413806962     0.000344826674123     0.033633333246887
   5   7
    -0.131809924717815     0.000736018373991    -0.000083421802667
     0.000317953747327     0.035633227911274    -0.007457075196315
     0.000524147468696    -0.008138414810985    -0.007983658926031
   5   8
     0.031668804593773     0.000141841775458    -0.000785585524405
    -0.000373062173454    -0.033371179015645     0.001203213803643
    -0.000069413806962     0.000344826674123     0.033633333246887
   5   9
    -0.052615780040081     0.000948695554500    -0.001996701208455
     0.002800647300497     0.020811726750231     0.016881154924682
     0.000359013603822     0.033873603596195     0.008534849207811
   5  10
     0.045210899531084     0.004282025695691    -0.000349977924437
     0.001168729509508    -0.974219112375247    -0.888995473309213
    -0.001178002608900    -1.061619550440430    -0.960259534399166
   5  11
     0.038641409282673    -0.000736742735941     0.001768652264607
    -0.001054689107033    -0.940892966437352     0.901387620456714
     0.002107716274700     1.061385196233785    -0.933239143119112
   5  12
    -0.062341994302513     0.002261436223750    -0.000466077277280
     0.001686952148901     0.032591041053682    -0.049207976950168
     0.000110999777247    -0.057588424058685     0.013673845283681
   5  13
    -0.062341994302513     0.002261436223750    -0.000466077277280
     0.001686952148901     0.032591041053682    -0.049207976950168
     0.000110999777247    -0.057588424058685     0.013673845283681
   5  14
     0.038641409282673    -0.000736742735941     0.001768652264607
    -0.001054689107033    -0.940892966437352     0.901387620456714
     0.002107716274700     1.061385196233785    -0.933239143119112
   5  15
     0.045210899531084     0.004282025695691    -0.000349977924437
     0.001168729509508    -0.974219112375247    -0.888995473309213