32
Lattice="7.964922149323444 0.0072865169572888 -0.0072266591131562 -0.0035794714164073 3.975176518865121 7.961081094947931 3.9751742229521514 -7.961558420280976 0.0038149099186735" Properties=Z:I:1:pos:R:3:vasp_force:R:3 uuid=9deaca26-bfb3-4eb2-9fba-b54a3badb06d vasp_virial="-0.013974722350607373 -0.3985839338004423 0.3944776172803585 -0.3985839338004423 -0.20714190685297712 0.39703854586277637 0.3944776172803585 0.39703854586277637 -0.09445789537366074" vasp_energy=-147.66511411 pbc="T T T"
      46       3.99246107       0.00365241      -0.00362240      -0.07854100       0.00102200      -0.00047000 
      46       7.96127872      -3.97531432      -0.00351254      -0.00031700      -0.00000300       0.00000600 
      46       0.00000000       0.00000000       0.00000000       0.00131800      -0.00000800       0.00000100 
      46       3.97881765      -3.97895758       0.00010079      -0.00031700       0.00000000       0.00001000 
      46       3.97884963      -0.00006890       3.97878428      -0.00080300      -0.00015800       0.00056600 
      46       7.95766728      -3.97902648       3.97888507      -0.00020400       0.00009700      -0.00055800 
      46       7.96131070       0.00357436       3.97517095      -0.00128200      -0.00014600       0.00057500 
      46       3.97520620      -3.98266974       3.98249840      -0.00068300       0.00009800      -0.00055600 
      46       3.97519021      -5.97211408       1.99315665       0.00052800       0.00014400       0.00011700 
      46       3.97883364      -1.98951324       1.98944253      -0.00020800      -0.00018700      -0.00039000 
      46       7.95765129      -5.96847082       1.98954332      -0.00054700       0.00010900       0.00009300 
      46       7.96129471      -1.98586998       1.98582920       0.00070500      -0.00023900      -0.00032600 
      46       7.96132669       1.99301870       5.96451269       0.00071900      -0.00019100      -0.00010700 
      46       3.97522219      -1.99322540       5.97184014       0.00034700       0.00022000       0.00036600 
      46       3.97886561       1.98937544       5.96812602      -0.00035700      -0.00019600      -0.00008700 
      46       7.95768326      -1.98958214       5.96822681      -0.00056500       0.00023800       0.00032100 
      46       5.97188589       0.00360881       1.98577881       0.00952200       0.00036500       0.00965900 
      46       9.95070354      -3.97534877       1.98587960      -0.00009400       0.00009700      -0.00017700 
      46       1.98942481      -0.00003445       1.98939214       0.00902300       0.00009000      -0.00837400 
      46       5.96824246      -3.97899203       1.98949293      -0.00008400      -0.00047800      -0.00006100 
      46       5.96827444      -0.00010335       5.96817642      -0.00026600      -0.00014900       0.00018300 
      46       9.94709209      -3.97906093       5.96827721       0.00966800      -0.00037700      -0.00945000 
      46       1.98581336      -0.00374661       5.97178975      -0.00027200       0.00042700       0.00006700 
      46       5.96463101      -3.98270419       5.97189054       0.00958600      -0.00010200       0.00857500 
      47       9.95068755      -5.96479311      -0.00346214       0.01061900       0.01231700       0.00042000 
      47       1.98940882      -1.98947879       0.00005040       0.01067300       0.01199300      -0.00048400 
      47       5.96822647      -5.96843637       0.00015119       0.01054900      -0.01229500       0.00047800 
      47       5.97186990      -1.98583553      -0.00356293       0.01119100      -0.01262600      -0.00042700 
      47       5.97190188       1.99305315       3.97512055       0.00002000      -0.00001600       0.00000800 
      47       9.95071952      -1.98590443       3.97522134       0.00002600       0.00007400      -0.00022900 
      47       1.98944080       1.98940989       3.97873388       0.00002400      -0.00001600       0.00000900 
      47       5.96825845      -1.98954769       3.97883467       0.00002100      -0.00010500       0.00024100 
32
Lattice="7.964922149323444 0.0072865169572888 -0.0072266591131562 -0.0035794714164073 3.975176518865121 7.961081094947931 3.9751742229521514 -7.961558420280976 0.0038149099186735" Properties=Z:I:1:pos:R:3:vasp_force:R:3 uuid=0a245b91-93b5-45de-a4db-2ef01753cd88 vasp_virial="-0.014353184702688818 -0.39829062547757915 0.3944523864568864 -0.39829062547757915 -0.2074572921463783 0.3967073913047051 0.3944523864568864 0.3967073913047051 -0.09418035631546769" vasp_energy=-147.66509038 pbc="T T T"
      46       3.98246108       0.00364326      -0.00361333       0.01047200       0.01196600      -0.00004500 
      46       7.96127872      -3.97531432      -0.00351254       0.01069500      -0.01221500       0.00002000 
      46       0.00000000       0.00000000       0.00000000       0.01099200      -0.01265100       0.00002000 
      46       3.97881765      -3.97895758       0.00010079       0.01076500       0.01239600      -0.00004500 
      46       3.97884963      -0.00006890       3.97878428      -0.00030700       0.00014100       0.00048500 
      46       7.95766728      -3.97902648       3.97888507       0.00029000       0.00013600      -0.00056900 
      46       7.96131070       0.00357436       3.97517095      -0.00031000      -0.00036600       0.00063700 
      46       3.97520620      -3.98266974       3.98249840       0.00028900       0.00013600      -0.00057000 
      46       3.97519021      -5.97211408       1.99315665       0.01086500       0.00009900       0.01278900 
      46       3.97883364      -1.98951324       1.98944253       0.00019600      -0.00008600      -0.00036800 
      46       7.95765129      -5.96847082       1.98954332       0.01035000       0.00027200      -0.01189800 
      46       7.96129471      -1.98586998       1.98582920       0.00018900      -0.00036000      -0.00033700 
      46       7.96132669       1.99301870       5.96451269       0.00010600      -0.00029800      -0.00009800 
      46       3.97522219      -1.99322540       5.97184014       0.01055900       0.00033400      -0.01207800 
      46       3.97886561       1.98937544       5.96812602       0.00011200      -0.00002400      -0.00013000 
      46       7.95768326      -1.98958214       5.96822681       0.01048500       0.00016000       0.01260100 
      46       5.97188589       0.00360881       1.98577881      -0.00142200       0.00030600       0.00028800 
      46       9.95070354      -3.97534877       1.98587960      -0.00115000      -0.00018300      -0.00015100 
      46       1.98942481      -0.00003445       1.98939214       0.00008400       0.00023800       0.00035600 
      46       5.96824246      -3.97899203       1.98949293       0.00031100      -0.00015600      -0.00012300 
      46       5.96827444      -0.00010335       5.96817642       0.00017300       0.00017300       0.00011900 
      46       9.94709209      -3.97906093       5.96827721      -0.00106200      -0.00020300      -0.00033600 
      46       1.98581336      -0.00374661       5.97178975      -0.00133400       0.00018900       0.00010000 
      46       5.96463101      -3.98270419       5.97189054       0.00040100      -0.00022600      -0.00036300 
      47       9.96068754      -5.96478396      -0.00347122      -0.08331100       0.00011700       0.00018300 
      47       1.98940882      -1.98947879       0.00005040       0.00027900       0.00005400      -0.00045600 
      47       5.96822647      -5.96843637       0.00015119       0.00094300      -0.00004000       0.00044600 
      47       5.97186990      -1.98583553      -0.00356293       0.00028000       0.00006000      -0.00045600 
      47       5.97190188       1.99305315       3.97512055      -0.00021600       0.00000900      -0.00000700 
      47       9.95071952      -1.98590443       3.97522134      -0.00021700       0.00000800      -0.00000500 
      47       1.98944080       1.98940989       3.97873388       0.00024600       0.00000700      -0.00000100 
      47       5.96825845      -1.98954769       3.97883467       0.00024700       0.00000800      -0.00000600 
32
Lattice="7.964922149323444 0.0072865169572888 -0.0072266591131562 -0.0035794714164073 3.975176518865121 7.961081094947931 3.9751742229521514 -7.961558420280976 0.0038149099186735" Properties=Z:I:1:pos:R:3:vasp_force:R:3 uuid=86d1c79f-73d1-44d8-9ad4-0a087432e465 vasp_virial="-0.015154263347927877 -0.3981297789779445 0.3948308488089679 -0.3981297789779445 -0.2078609853219319 0.39754000847928433 0.3948308488089679 0.39754000847928433 -0.09473858828478783" vasp_energy=-147.66508941 pbc="T T T"
      46       3.98246108       0.00364326      -0.00361333       0.00535100       0.00472000      -0.00106700 
      46       7.96127872      -3.97531432      -0.00351254      -0.00559300       0.00487700      -0.00113700 
      46       0.00000000       0.00000000       0.00000000      -0.00554600       0.00485900      -0.00109100 
      46       3.97881765      -3.97895758       0.00010079       0.00539700       0.00473600      -0.00111100 
      46       3.97884963      -0.00006890       3.97878428      -0.00048700      -0.00031200       0.00074200 
      46       7.95766728      -3.97902648       3.97888507       0.00027700       0.00034000      -0.00019800 
      46       7.96131070       0.00357436       3.97517095      -0.00014900      -0.00030800       0.00074000 
      46       3.97520620      -3.98266974       3.98249840       0.00028800       0.00034000      -0.00019800 
      46       3.97519021      -5.97211408       1.99315665       0.01122500      -0.00040700       0.00996000 
      46       3.97883364      -1.98951324       1.98944253       0.00028700      -0.00011800      -0.00029200 
      46       7.95765129      -5.96847082       1.98954332      -0.01119700      -0.00040300       0.00973800 
      46       7.96129471      -1.98586998       1.98582920       0.00002300      -0.00011500      -0.00029400 
      46       7.96132669       1.99301870       5.96451269      -0.00005200      -0.00005500      -0.00005300 
      46       3.97522219      -1.99322540       5.97184014      -0.01094900      -0.00029800       0.00975600 
      46       3.97886561       1.98937544       5.96812602       0.00019600      -0.00005700      -0.00005000 
      46       7.95768326      -1.98958214       5.96822681       0.01080300      -0.00030100       0.00997400 
      46       5.97188589       0.00360881       1.98577881      -0.00020600      -0.00585500       0.00441400 
      46       9.95070354      -3.97534877       1.98587960       0.00006700       0.01617200       0.01546500 
      46       1.98942481      -0.00003445       1.98939214      -0.00019800       0.00007500       0.00033900 
      46       5.96824246      -3.97899203       1.98949293       0.00007100      -0.00001100       0.00006800 
      46       5.96827444      -0.00010335       5.96817642      -0.00010900       0.00000600       0.00010200 
      46       9.94709209      -3.97906093       5.96827721       0.00015700       0.01537200       0.01457500 
      46       1.98581336      -0.00374661       5.97178975      -0.00011800      -0.00585300       0.00417900 
      46       5.96463101      -3.98270419       5.97189054       0.00015900      -0.00007700      -0.00016600 
      47       9.95068352      -5.96032580       0.00548454       0.00027300      -0.03809100      -0.07539100 
      47       1.98940882      -1.98947879       0.00005040       0.00015300       0.00042500      -0.00062800 
      47       5.96822647      -5.96843637       0.00015119      -0.00019500      -0.00017600       0.00011500 
      47       5.97186990      -1.98583553      -0.00356293       0.00015200       0.00042500      -0.00062500 
      47       5.97190188       1.99305315       3.97512055      -0.00002100       0.00014200       0.00074400 
      47       9.95071952      -1.98590443       3.97522134      -0.00002100       0.00014800       0.00074700 
      47       1.98944080       1.98940989       3.97873388      -0.00001900      -0.00009900       0.00032300 
      47       5.96825845      -1.98954769       3.97883467      -0.00001900      -0.00010000       0.00032100 
32
Lattice="7.964922149323444 0.0072865169572888 -0.0072266591131562 -0.0035794714164073 3.975176518865121 7.961081094947931 3.9751742229521514 -7.961558420280976 0.0038149099186735" Properties=Z:I:1:pos:R:3:vasp_force:R:3 uuid=c63f1892-8740-4c9a-86e0-4014085f4c00 vasp_virial="-0.014324800026282709 -0.39902862706413794 0.3946100791035871 -0.39902862706413794 -0.20722706088219545 0.3968366992749996 0.3946100791035871 0.3968366992749996 -0.09390912496314267" vasp_energy=-147.66508951 pbc="T T T"
      46       3.98246108       0.00364326      -0.00361333      -0.00619200      -0.00406100      -0.00000300 
      46       7.96127872      -3.97531432      -0.00351254       0.01561500      -0.01495200       0.00001500 
      46       0.00000000       0.00000000       0.00000000       0.01634800      -0.01560700       0.00001300 
      46       3.97881765      -3.97895758       0.00010079      -0.00611600      -0.00406200      -0.00000300 
      46       3.97884963      -0.00006890       3.97878428      -0.00039800      -0.00002000       0.00072300 
      46       7.95766728      -3.97902648       3.97888507       0.00028100       0.00012000      -0.00074100 
      46       7.96131070       0.00357436       3.97517095      -0.00023800      -0.00024700       0.00078900 
      46       3.97520620      -3.98266974       3.98249840       0.00028200       0.00012200      -0.00074400 
      46       3.97519021      -5.97211408       1.99315665       0.00475800       0.00128600       0.00571700 
      46       3.97883364      -1.98951324       1.98944253      -0.00003500      -0.00038000      -0.00034800 
      46       7.95765129      -5.96847082       1.98954332       0.00457400       0.00128800      -0.00529200 
      46       7.96129471      -1.98586998       1.98582920       0.00038400      -0.00050600      -0.00033300 
      46       7.96132669       1.99301870       5.96451269       0.00030100      -0.00044300      -0.00009800 
      46       3.97522219      -1.99322540       5.97184014       0.00450800       0.00139300      -0.00509500 
      46       3.97886561       1.98937544       5.96812602      -0.00011800      -0.00031800      -0.00010700 
      46       7.95768326      -1.98958214       5.96822681       0.00465600       0.00130200       0.00591200 
      46       5.97188589       0.00360881       1.98577881      -0.00078200      -0.00940000       0.01148000 
      46       9.95070354      -3.97534877       1.98587960      -0.00045400      -0.00975500      -0.01110600 
      46       1.98942481      -0.00003445       1.98939214      -0.00006900       0.00025300       0.00051800 
      46       5.96824246      -3.97899203       1.98949293       0.00017500      -0.00019700      -0.00031600 
      46       5.96827444      -0.00010335       5.96817642       0.00001800       0.00018400       0.00027800 
      46       9.94709209      -3.97906093       5.96827721      -0.00041100      -0.01005200      -0.01167900 
      46       1.98581336      -0.00374661       5.97178975      -0.00064900      -0.00924400       0.01091400 
      46       5.96463101      -3.98270419       5.97189054       0.00026600      -0.00026400      -0.00055600 
      47       9.95515464      -5.97373990      -0.00345786      -0.03742500       0.07478300       0.00048600 
      47       1.98940882      -1.98947879       0.00005040       0.00021500      -0.00068900      -0.00044600 
      47       5.96822647      -5.96843637       0.00015119       0.00031400       0.00023400       0.00045500 
      47       5.97186990      -1.98583553      -0.00356293       0.00020800      -0.00068800      -0.00044600 
      47       5.97190188       1.99305315       3.97512055      -0.00010900       0.00001400      -0.00013900 
      47       9.95071952      -1.98590443       3.97522134      -0.00010900       0.00001500      -0.00013400 
      47       1.98944080       1.98940989       3.97873388       0.00010100      -0.00005400       0.00014200 
      47       5.96825845      -1.98954769       3.97883467       0.00010100      -0.00005500       0.00014400 
32
Lattice="7.964922149323444 0.0072865169572888 -0.0072266591131562 -0.0035794714164073 3.975176518865121 7.961081094947931 3.9751742229521514 -7.961558420280976 0.0038149099186735" Properties=Z:I:1:pos:R:3:vasp_force:R:3 uuid=3f9b503d-c777-48b8-a4b4-baaf107ee8bb vasp_virial="-0.013826491262708806 -0.3982874716246451 0.3948119256913639 -0.3982874716246451 -0.20731536876434778 0.3974958545382081 0.3948119256913639 0.3974958545382081 -0.09424658722708194" vasp_energy=-147.66514382 pbc="T T T"
      46       3.98245705       0.00811057       0.00533335       0.00016900      -0.03523000      -0.06391800 
      46       7.96127872      -3.97531432      -0.00351254       0.00000300       0.00014200      -0.00030300 
      46       0.00000000       0.00000000       0.00000000      -0.00000700      -0.00008600       0.00010500 
      46       3.97881765      -3.97895758       0.00010079       0.00000200       0.00015000      -0.00030900 
      46       3.97884963      -0.00006890       3.97878428      -0.00031300      -0.00055600       0.00149100 
      46       7.95766728      -3.97902648       3.97888507       0.00028700      -0.00031400       0.00034700 
      46       7.96131070       0.00357436       3.97517095      -0.00030600      -0.00041800       0.00000700 
      46       3.97520620      -3.98266974       3.98249840       0.00029300      -0.00017200      -0.00112300 
      46       3.97519021      -5.97211408       1.99315665      -0.00010400       0.00053800       0.00020100 
      46       3.97883364      -1.98951324       1.98944253       0.00016400      -0.00556200       0.00399100 
      46       7.95765129      -5.96847082       1.98954332      -0.00008900       0.01434100       0.01296400 
      46       7.96129471      -1.98586998       1.98582920       0.00016300      -0.00062800      -0.00050300 
      46       7.96132669       1.99301870       5.96451269       0.00008600       0.00020100      -0.00000600 
      46       3.97522219      -1.99322540       5.97184014      -0.00019500      -0.00016400       0.00019900 
      46       3.97886561       1.98937544       5.96812602       0.00010000       0.01335900       0.01216100 
      46       7.95768326      -1.98958214       5.96822681      -0.00019200      -0.00502300       0.00465500 
      46       5.97188589       0.00360881       1.98577881       0.00931700       0.00001300       0.00914200 
      46       9.95070354      -3.97534877       1.98587960       0.00011300       0.00012700      -0.00032700 
      46       1.98942481      -0.00003445       1.98939214      -0.00950700      -0.00003600       0.00892900 
      46       5.96824246      -3.97899203       1.98949293       0.00004900       0.00011900      -0.00032200 
      46       5.96827444      -0.00010335       5.96817642      -0.00012300       0.00044100      -0.00007900 
      46       9.94709209      -3.97906093       5.96827721      -0.00885600      -0.00046500       0.00798600 
      46       1.98581336      -0.00374661       5.97178975      -0.00007500       0.00045000      -0.00008300 
      46       5.96463101      -3.98270419       5.97189054       0.00937500      -0.00041700       0.00819400 
      47       9.95068755      -5.96479311      -0.00346214       0.00523800       0.00468800      -0.00067700 
      47       1.98940882      -1.98947879       0.00005040       0.00552900       0.00476300      -0.00153300 
      47       5.96822647      -5.96843637       0.00015119      -0.00575200       0.00482000      -0.00069800 
      47       5.97186990      -1.98583553      -0.00356293      -0.00535100       0.00489400      -0.00155400 
      47       5.97190188       1.99305315       3.97512055      -0.00000200       0.00018800       0.00037200 
      47       9.95071952      -1.98590443       3.97522134       0.00004400      -0.00017600       0.00015900 
      47       1.98944080       1.98940989       3.97873388      -0.00000700       0.00018800       0.00037200 
      47       5.96825845      -1.98954769       3.97883467      -0.00005500      -0.00017400       0.00016100 
32
Lattice="7.964922149323444 0.0072865169572888 -0.0072266591131562 -0.0035794714164073 3.975176518865121 7.961081094947931 3.9751742229521514 -7.961558420280976 0.0038149099186735" Properties=Z:I:1:pos:R:3:vasp_force:R:3 uuid=335a3f31-e1ba-4f0b-bd01-7a8efa0278e5 vasp_virial="-0.014577108261003674 -0.3996404745333363 0.39462584836825715 -0.3996404745333363 -0.20797137017462228 0.3968871609219438 0.39462584836825715 0.3968871609219438 -0.09459351104982328" vasp_energy=-147.66511455 pbc="T T T"
      46       3.98692817      -0.00530353      -0.00360904      -0.03592800       0.07025900      -0.00006000 
      46       7.96127872      -3.97531432      -0.00351254      -0.00014800      -0.00030300       0.00001400 
      46       0.00000000       0.00000000       0.00000000       0.00059200       0.00031600      -0.00006600 
      46       3.97881765      -3.97895758       0.00010079      -0.00014100      -0.00029500       0.00001400 
      46       3.97884963      -0.00006890       3.97878428      -0.00050400       0.00043400       0.00072500 
      46       7.95766728      -3.97902648       3.97888507       0.00009600       0.00068000      -0.00040500 
      46       7.96131070       0.00357436       3.97517095      -0.00072200       0.00075600       0.00043100 
      46       3.97520620      -3.98266974       3.98249840      -0.00012100       0.00100700      -0.00071600 
      46       3.97519021      -5.97211408       1.99315665       0.00019600       0.00044900      -0.00033400 
      46       3.97883364      -1.98951324       1.98944253      -0.00001500      -0.00875700       0.00785100 
      46       7.95765129      -5.96847082       1.98954332      -0.00027500      -0.00845000      -0.00770100 
      46       7.96129471      -1.98586998       1.98582920       0.00043900      -0.00004700      -0.00018900 
      46       7.96132669       1.99301870       5.96451269       0.00039100       0.00011500      -0.00054200 
      46       3.97522219      -1.99322540       5.97184014       0.00008100       0.00041100       0.00050900 
      46       3.97886561       1.98937544       5.96812602      -0.00010800      -0.00901100      -0.00819500 
      46       7.95768326      -1.98958214       5.96822681      -0.00035000      -0.00808100       0.00827000 
      46       5.97188589       0.00360881       1.98577881       0.00416500       0.00070300       0.00447200 
      46       9.95070354      -3.97534877       1.98587960      -0.00047700      -0.00061200      -0.00013800 
      46       1.98942481      -0.00003445       1.98939214       0.00393900       0.00057100      -0.00355800 
      46       5.96824246      -3.97899203       1.98949293       0.00051900      -0.00086500      -0.00008700 
      46       5.96827444      -0.00010335       5.96817642       0.00033900      -0.00053500       0.00015000 
      46       9.94709209      -3.97906093       5.96827721       0.00432100       0.00012600      -0.00432900 
      46       1.98581336      -0.00374661       5.97178975      -0.00065800      -0.00028000       0.00010200 
      46       5.96463101      -3.98270419       5.97189054       0.00449600       0.00021600       0.00370300 
      47       9.95068755      -5.96479311      -0.00346214      -0.00625000      -0.00412100       0.00046200 
      47       1.98940882      -1.98947879       0.00005040      -0.00598500      -0.00402100      -0.00044300 
      47       5.96822647      -5.96843637       0.00015119       0.01547700      -0.01501700       0.00046700 
      47       5.97186990      -1.98583553      -0.00356293       0.01655300      -0.01556300      -0.00043900 
      47       5.97190188       1.99305315       3.97512055       0.00002200      -0.00002000      -0.00019700 
      47       9.95071952      -1.98590443       3.97522134      -0.00020800       0.00001800       0.00010400 
      47       1.98944080       1.98940989       3.97873388       0.00001700      -0.00002000      -0.00018900 
      47       5.96825845      -1.98954769       3.97883467       0.00024800      -0.00006200       0.00031500 
32
Lattice="7.964922149323444 0.0072865169572888 -0.0072266591131562 -0.0035794714164073 3.975176518865121 7.961081094947931 3.9751742229521514 -7.961558420280976 0.0038149099186735" Properties=Z:I:1:pos:R:3:vasp_force:R:3 uuid=0ac2e7ba-7ab1-4d52-815e-0d4cf38aefe0 vasp_virial="-0.013350259469672986 -0.39863439544738644 0.394058154840135 -0.39863439544738644 -0.20748252296985042 0.39681777615739555 0.394058154840135 0.39681777615739555 -0.09355589343453331" vasp_energy=-147.66511523 pbc="T T T"
      46       3.98246108       0.00364326      -0.00361333       0.00061000      -0.00000500      -0.00000600 
      46       7.96127872      -3.97531432      -0.00351254       0.00051300      -0.00001600      -0.00000300 
      46       0.00000000       0.00000000       0.00000000      -0.00046500       0.00000800       0.00003400 
      46       3.97881765      -3.97895758       0.00010079      -0.00039900       0.00002700      -0.00002500 
      46       3.97884963      -0.00006890       3.97878428       0.00021300      -0.00014300       0.00056400 
      46       7.95766728      -3.97902648       3.97888507       0.00091000       0.00011900      -0.00055900 
      46       7.96131070       0.00357436       3.97517095      -0.00069800      -0.00007400       0.00051700 
      46       3.97520620      -3.98266974       3.98249840      -0.00016500       0.00011200      -0.00056700 
      46       3.98519020      -5.97210493       1.99314758      -0.07809700       0.00055600      -0.00035400 
      46       3.97883364      -1.98951324       1.98944253      -0.00124100      -0.00024100      -0.00034000 
      46       7.95765129      -5.96847082       1.98954332       0.00133200       0.00017000       0.00009000 
      46       7.96129471      -1.98586998       1.98582920      -0.00124100      -0.00023900      -0.00032700 
      46       7.96132669       1.99301870       5.96451269      -0.00014400      -0.00017700      -0.00011200 
      46       3.97522219      -1.99322540       5.97184014      -0.00041700       0.00023600       0.00034600 
      46       3.97886561       1.98937544       5.96812602      -0.00043100      -0.00016400      -0.00011200 
      46       7.95768326      -1.98958214       5.96822681      -0.00070400       0.00022500       0.00034700 
      46       5.97188589       0.00360881       1.98577881       0.00895300       0.00896300       0.00038300 
      46       9.95070354      -3.97534877       1.98587960       0.00943000      -0.00909700      -0.00016800 
      46       1.98942481      -0.00003445       1.98939214       0.00945000      -0.00906100       0.00031100 
      46       5.96824246      -3.97899203       1.98949293       0.00950500       0.00892100      -0.00009700 
      46       5.96827444      -0.00010335       5.96817642      -0.00013000       0.00036900      -0.00029400 
      46       9.94709209      -3.97906093       5.96827721       0.00017700      -0.00022600      -0.00035100 
      46       1.98581336      -0.00374661       5.97178975      -0.00012300      -0.00004700       0.00054900 
      46       5.96463101      -3.98270419       5.97189054       0.00016500      -0.00022600      -0.00035100 
      47       9.95068755      -5.96479311      -0.00346214       0.01050600      -0.00007100       0.01272800 
      47       1.98940882      -1.98947879       0.00005040       0.00020400      -0.00019000      -0.00048000 
      47       5.96822647      -5.96843637       0.00015119       0.01057800      -0.00001600      -0.01198400 
      47       5.97186990      -1.98583553      -0.00356293       0.00020900       0.00028200      -0.00043000 
      47       5.97190188       1.99305315       3.97512055       0.01046000       0.00003300      -0.01201400 
      47       9.95071952      -1.98590443       3.97522134       0.00003100      -0.00024000      -0.00002600 
      47       1.98944080       1.98940989       3.97873388       0.01097300      -0.00002200       0.01270600 
      47       5.96825845      -1.98954769       3.97883467       0.00003600       0.00023300       0.00002500 
32
Lattice="7.964922149323444 0.0072865169572888 -0.0072266591131562 -0.0035794714164073 3.975176518865121 7.961081094947931 3.9751742229521514 -7.961558420280976 0.0038149099186735" Properties=Z:I:1:pos:R:3:vasp_force:R:3 uuid=a91c50e5-f8fd-4071-8691-baae0f7fd21a vasp_virial="-0.014327953879216723 -0.3985587029769702 0.3948087718384299 -0.3985587029769702 -0.20803444723330256 0.3969218533042179 0.3948087718384299 0.3969218533042179 -0.09488051166681837" vasp_energy=-147.66512549 pbc="T T T"
      46       3.98246108       0.00364326      -0.00361333       0.00000100       0.00032500       0.00008600 
      46       7.96127872      -3.97531432      -0.00351254       0.00002000      -0.00022800      -0.00027700 
      46       0.00000000       0.00000000       0.00000000      -0.00000900       0.01201700       0.01299000 
      46       3.97881765      -3.97895758       0.00010079      -0.00000500      -0.00380100       0.00354100 
      46       3.97884963      -0.00006890       3.97878428      -0.00027900      -0.00034000       0.00029500 
      46       7.95766728      -3.97902648       3.97888507       0.00030000       0.00043800      -0.00048100 
      46       7.96131070       0.00357436       3.97517095      -0.00030500      -0.00399200       0.00414700 
      46       3.97520620      -3.98266974       3.98249840       0.00029000       0.01277200       0.01300900 