  30
   1   1
     6.629392427351673     0.060592574139363    -0.017446420203838
     0.026084284314716     6.604740689631267     0.011767460537316
    -0.013906763940069    -0.002609325340802     6.939067195046013
   1   2
    -0.770101409518430    -0.881023748039386    -0.050038580866516
    -0.772148151432926    -0.771918536881824    -0.015014041977584
     0.023498811935194     0.080255375959300    -0.000021948385857
   1   3
    -0.025513225164229    -0.040496949467477    -0.031209080892243
    -0.042774607180471    -0.027707152134862     0.013638654830615
    -0.005495869130527    -0.016634804728604     0.011642732327595
   1   4
    -0.025569746290323    -0.044114723656662    -0.005391929036673
    -0.039001464121695    -0.027611755501795    -0.017093670771903
    -0.031215494929135     0.014422674802332     0.011634053459866
   1   5
    -0.770186045721777    -0.773537138580949     0.023232717102422
    -0.879499803309394    -0.771750205266488     0.079543681330666
    -0.049799480088383    -0.013944330572066     0.001051689501221
   1   6
    -0.005959526171434    -0.013799639356989     0.006026414653178
    -0.038989289105467    -0.929035226459190    -0.945524684681563
    -0.036329759604228    -0.965689874834894    -0.880631193814495
   1   7
    -0.016031499091569    -0.018409503337331     0.016430526642568
    -0.018302818378950    -0.051807634878788    -0.041108261748033
     0.001451437453554    -0.041065885397116    -0.064090471482532
   1   8
    -0.014476054548807     0.002676154951541    -0.037807602860310
     0.032133690650600    -0.003115529015955     0.012971222553007
    -0.019327216401342    -0.001928193222100     0.001046897176317
   1   9
    -0.097489614226006     0.005174151761550     0.034462633317499
    -0.022127815652173    -0.044210778662684     0.025643207351086
     0.044729860539863     0.006858985278917    -0.055272723080363
   1  10
    -0.911252043743984    -0.035259016278285     0.954482095572996
    -0.006670758466994    -0.011844743524081    -0.024687602288243
     0.982427671902267     0.029179841097555    -0.893174527018993
   1  11
    -0.027534645565535     0.011321605537898     0.027346917804344
     0.012301753399816    -0.004776164854432    -0.038955568845473
     0.026283953687158    -0.039163192467970    -0.078619314394330
   1  12
     0.047005114002750    -0.014201836089851    -0.003154227924090
    -0.013153371740166     0.008226033637001    -0.038743966673162
    -0.003569900290615    -0.038418254953694    -0.031263082558233
   1  13
     0.033513176252199    -0.019966508143218     0.012665681305964
    -0.018934700584618    -0.060576742991886     0.022377079396457
     0.012369361894976     0.022681631293627     0.010014876987527
   1  14
    -0.545733054055453     0.657061491964672     0.046963458677466
     0.657633441786466    -0.565954181226114    -0.062244721445316
     0.047100321975450    -0.061529092289817     0.088306328337270
   1  15
    -0.073602996996498    -0.010642978449487     0.031758016297357
    -0.009825088123379     0.067091984511533     0.005982338011257
     0.031102750130139     0.006274145376814     0.043444969277965
   1  16
    -0.711966750369516    -0.011274621526408    -0.837139916749033
    -0.014768670501918     0.079172691061170     0.000186833008331
    -0.810317298153245     0.009423672506270    -0.760774489911273
   1  17
     0.068824314369274    -0.022328114168158     0.005184862620264
    -0.006141522648405    -0.730007396971314     0.834657237749646
     0.007624792879267     0.810769779705755    -0.777390154367089
   1  18
     0.116066364866706    -0.000456920898072    -0.007964751598111
     0.009301466805650    -1.058756238035671     1.146423920326677
    -0.022514355610930     1.146342394555540    -0.956941010022496
   1  19
    -1.053526280265910     0.012458840525642    -1.138177087433743
     0.006659990572539     0.122290603357267     0.012282508436730
    -1.131041062299253     0.024606684119088    -0.972372369949223
   1  20
    -0.017904528362148    -0.008803144613482    -0.003763139922790
    -0.021350315965709    -0.005246172549831    -0.003869499920523
    -0.015316093511222    -0.011397611465499     0.004491095925379
   1  21
    -0.010325544199459    -0.001181624400916     0.003960456840072
     0.009571350060226    -0.015625360828043    -0.016755048177043
     0.000756794406478    -0.008692243149902    -0.027894295355009
   1  22
    -0.056176052023197     0.008432773456500    -0.011212463682270
    -0.023502589132815     0.028106786690588    -0.012976847443574
     0.014684164041994    -0.002436977806730     0.027652306032509
   1  23
    -1.008264361858124     1.143125713617566    -0.034064786213461
     1.147406700349723    -1.004509769228228     0.032691833410433
    -0.005094100366458     0.008169436064485     0.110724862633101
   1  24
     0.015767328277791    -0.019629297380952     0.014284007237689
     0.011810282877511    -0.062903052025083     0.023301595802041
     0.007857758905359    -0.012880318577933     0.007293999704180
   1  25
     0.024827649213080     0.004592019982584     0.016659137714193
    -0.004838232486703     0.028229118370212    -0.016114013799652
    -0.008819686987626     0.008387887696443    -0.049422902654870
   1  26
     0.101743625634459    -0.003751558253426    -0.002827217110873
     0.000589027883152    -0.849202042427188    -0.969856785136411
     0.011106194309835    -0.931976269449847    -0.828146621395799
   1  27
    -0.840509070228080    -0.000360553279540     0.967870009486303
    -0.004880074395339     0.101501932260265    -0.000453323131292
     0.928395725692311    -0.021219725984185    -0.839045383811268
   1  28
    -0.029416144951675     0.004126051009740     0.021411588444255
     0.012007645733091    -0.021242802814860     0.004183532244795
     0.024134861066321     0.022026044752038    -0.013671862559127
   1  29
    -0.020690096374555     0.017319339767144     0.001160907738870
     0.014788381112253    -0.005031152679179    -0.017732524842570
    -0.018830982585131    -0.007511023893244    -0.015415939055619
   1  30
    -0.004912107681067    -0.007641500759213    -0.003705384142049
    -0.003377420081641    -0.016525856918187    -0.004520875640370
     0.008052383902536    -0.012298747193351    -0.012224785686200
   2   1
    -0.770186045721777    -0.773537138580949     0.023232717102422
    -0.879499803309394    -0.771750205266488     0.079543681330666
    -0.049799480088383    -0.013944330572066     0.001051689501221
   2   2
     6.629392427351673     0.060592574139363    -0.017446420203838
     0.026084284314715     6.604740689631267     0.011767460537317
    -0.013906763940069    -0.002609325340801     6.939067195046013
   2   3
    -0.770101409518430    -0.881023748039386    -0.050038580866516
    -0.772148151432926    -0.771918536881824    -0.015014041977584
     0.023498811935194     0.080255375959300    -0.000021948385857
   2   4
    -0.025513225164229    -0.040496949467477    -0.031209080892243
    -0.042774607180471    -0.027707152134862     0.013638654830615
    -0.005495869130527    -0.016634804728604     0.011642732327595
   2   5
    -0.025569746290323    -0.044114723656662    -0.005391929036673
    -0.039001464121695    -0.027611755501795    -0.017093670771903
    -0.031215494929135     0.014422674802332     0.011634053459866
   2   6
    -0.911252043743984    -0.035259016278285     0.954482095572996
    -0.006670758466994    -0.011844743524081    -0.024687602288243
     0.982427671902267     0.029179841097554    -0.893174527018993
   2   7
    -0.005959526171434    -0.013799639356989     0.006026414653178
    -0.038989289105467    -0.929035226459190    -0.945524684681563
    -0.036329759604228    -0.965689874834895    -0.880631193814495
   2   8
    -0.016031499091569    -0.018409503337331     0.016430526642568
    -0.018302818378950    -0.051807634878788    -0.041108261748033
     0.001451437453554    -0.041065885397116    -0.064090471482532
   2   9
    -0.014476054548807     0.002676154951541    -0.037807602860310
     0.032133690650600    -0.003115529015955     0.012971222553007
    -0.019327216401342    -0.001928193222100     0.001046897176317
   2  10
    -0.097489614226006     0.005174151761550     0.034462633317499
    -0.022127815652173    -0.044210778662684     0.025643207351086
     0.044729860539863     0.006858985278917    -0.055272723080363
   2  11
    -0.073602996996498    -0.010642978449487     0.031758016297357
    -0.009825088123379     0.067091984511533     0.005982338011257
     0.031102750130139     0.006274145376814     0.043444969277965
   2  12
    -0.027534645565535     0.011321605537898     0.027346917804344
     0.012301753399816    -0.004776164854432    -0.038955568845473
     0.026283953687158    -0.039163192467970    -0.078619314394330
   2  13
     0.047005114002750    -0.014201836089851    -0.003154227924090
    -0.013153371740166     0.008226033637001    -0.038743966673162
    -0.003569900290615    -0.038418254953694    -0.031263082558233
   2  14
     0.033513176252199    -0.019966508143218     0.012665681305964
    -0.018934700584618    -0.060576742991886     0.022377079396457
     0.012369361894976     0.022681631293627     0.010014876987527
   2  15
    -0.545733054055453     0.657061491964672     0.046963458677466
     0.657633441786466    -0.565954181226114    -0.062244721445316
     0.047100321975450    -0.061529092289817     0.088306328337270
   2  16
    -0.017904528362148    -0.008803144613482    -0.003763139922790
    -0.021350315965709    -0.005246172549831    -0.003869499920523
    -0.015316093511222    -0.011397611465499     0.004491095925379
   2  17
    -0.711966750369516    -0.011274621526408    -0.837139916749033
    -0.014768670501918     0.079172691061170     0.000186833008331
    -0.810317298153245     0.009423672506270    -0.760774489911273
   2  18
     0.068824314369274    -0.022328114168158     0.005184862620264
    -0.006141522648405    -0.730007396971314     0.834657237749646
     0.007624792879267     0.810769779705755    -0.777390154367089
   2  19
     0.116066364866706    -0.000456920898072    -0.007964751598111
     0.009301466805650    -1.058756238035671     1.146423920326677
    -0.022514355610930     1.146342394555540    -0.956941010022496
   2  20
    -1.053526280265910     0.012458840525642    -1.138177087433743
     0.006659990572539     0.122290603357267     0.012282508436730
    -1.131041062299253     0.024606684119087    -0.972372369949223
   2  21
     0.024827649213080     0.004592019982584     0.016659137714193
    -0.004838232486703     0.028229118370212    -0.016114013799652
    -0.008819686987626     0.008387887696443    -0.049422902654870
   2  22
    -0.010325544199459    -0.001181624400916     0.003960456840072
     0.009571350060226    -0.015625360828043    -0.016755048177043
     0.000756794406478    -0.008692243149902    -0.027894295355009
   2  23
    -0.056176052023197     0.008432773456500    -0.011212463682270
    -0.023502589132815     0.028106786690588    -0.012976847443574
     0.014684164041994    -0.002436977806730     0.027652306032509
   2  24
    -1.008264361858124     1.143125713617566    -0.034064786213461
     1.147406700349723    -1.004509769228228     0.032691833410433
    -0.005094100366458     0.008169436064485     0.110724862633101
   2  25
     0.015767328277791    -0.019629297380952     0.014284007237689
     0.011810282877511    -0.062903052025083     0.023301595802041
     0.007857758905359    -0.012880318577933     0.007293999704180
   2  26
    -0.004912107681067    -0.007641500759213    -0.003705384142049
    -0.003377420081641    -0.016525856918187    -0.004520875640370
     0.008052383902536    -0.012298747193351    -0.012224785686200
   2  27
     0.101743625634459    -0.003751558253426    -0.002827217110873
     0.000589027883152    -0.849202042427188    -0.969856785136412
     0.011106194309835    -0.931976269449847    -0.828146621395799
   2  28
    -0.840509070228080    -0.000360553279540     0.967870009486303
    -0.004880074395338     0.101501932260265    -0.000453323131292
     0.928395725692311    -0.021219725984185    -0.839045383811268
   2  29
    -0.029416144951675     0.004126051009740     0.021411588444255
     0.012007645733091    -0.021242802814860     0.004183532244795
     0.024134861066321     0.022026044752038    -0.013671862559127
   2  30
    -0.020690096374555     0.017319339767144     0.001160907738870
     0.014788381112253    -0.005031152679179    -0.017732524842570
    -0.018830982585131    -0.007511023893244    -0.015415939055619
   3   1
    -0.025569746290323    -0.044114723656662    -0.005391929036673
    -0.039001464121695    -0.027611755501795    -0.017093670771903
    -0.031215494929135     0.014422674802332     0.011634053459866
   3   2
    -0.770186045721777    -0.773537138580949     0.023232717102422
    -0.879499803309394    -0.771750205266488     0.079543681330666
    -0.049799480088383    -0.013944330572066     0.001051689501221
   3   3
     6.629392427351673     0.060592574139363    -0.017446420203838
     0.026084284314715     6.604740689631267     0.011767460537317
    -0.013906763940069    -0.002609325340801     6.939067195046013
   3   4
    -0.770101409518430    -0.881023748039386    -0.050038580866516
    -0.772148151432926    -0.771918536881824    -0.015014041977584
     0.023498811935194     0.080255375959300    -0.000021948385857
   3   5
    -0.025513225164229    -0.040496949467477    -0.031209080892243
    -0.042774607180471    -0.027707152134862     0.013638654830615
    -0.005495869130527    -0.016634804728604     0.011642732327595
   3   6
    -0.097489614226006     0.005174151761550     0.034462633317499
    -0.022127815652173    -0.044210778662684     0.025643207351086
     0.044729860539863     0.006858985278917    -0.055272723080363
   3   7
    -0.911252043743984    -0.035259016278285     0.954482095572996
    -0.006670758466994    -0.011844743524081    -0.024687602288243
     0.982427671902267     0.029179841097554    -0.893174527018993
   3   8
    -0.005959526171434    -0.013799639356989     0.006026414653178
    -0.038989289105467    -0.929035226459190    -0.945524684681563
    -0.036329759604228    -0.965689874834895    -0.880631193814495
   3   9
    -0.016031499091569    -0.018409503337331     0.016430526642568
    -0.018302818378950    -0.051807634878788    -0.041108261748033
     0.001451437453554    -0.041065885397116    -0.064090471482532
   3  10
    -0.014476054548807     0.002676154951541    -0.037807602860310
     0.032133690650600    -0.003115529015955     0.012971222553007
    -0.019327216401342    -0.001928193222100     0.001046897176317
   3  11
    -0.545733054055453     0.657061491964672     0.046963458677466
     0.657633441786466    -0.565954181226114    -0.062244721445316
     0.047100321975450    -0.061529092289817     0.088306328337270
   3  12
    -0.073602996996498    -0.010642978449487     0.031758016297357
    -0.009825088123379     0.067091984511533     0.005982338011257
     0.031102750130139     0.006274145376814     0.043444969277965
   3  13
    -0.027534645565535     0.011321605537898     0.027346917804344
     0.012301753399816    -0.004776164854432    -0.038955568845473
     0.026283953687158    -0.039163192467970    -0.078619314394330
   3  14
     0.047005114002750    -0.014201836089851    -0.003154227924090
    -0.013153371740166     0.008226033637001    -0.038743966673162
    -0.003569900290615    -0.038418254953694    -0.031263082558233
   3  15
     0.033513176252199    -0.019966508143218     0.012665681305964
    -0.018934700584618    -0.060576742991886     0.022377079396457
     0.012369361894976     0.022681631293627     0.010014876987527
   3  16
    -1.053526280265910     0.012458840525642    -1.138177087433743
     0.006659990572539     0.122290603357267     0.012282508436730
    -1.131041062299253     0.024606684119087    -0.972372369949223
   3  17
    -0.017904528362148    -0.008803144613482    -0.003763139922790
    -0.021350315965709    -0.005246172549831    -0.003869499920523
    -0.015316093511222    -0.011397611465499     0.004491095925379
   3  18
    -0.711966750369516    -0.011274621526408    -0.837139916749033
    -0.014768670501918     0.079172691061170     0.000186833008331
    -0.810317298153245     0.009423672506270    -0.760774489911273
   3  19
     0.068824314369274    -0.022328114168158     0.005184862620264
    -0.006141522648405    -0.730007396971314     0.834657237749646
     0.007624792879267     0.810769779705755    -0.777390154367089
   3  20
     0.116066364866706    -0.000456920898072    -0.007964751598111
     0.009301466805650    -1.058756238035671     1.146423920326677
    -0.022514355610930     1.146342394555540    -0.956941010022496
   3  21
     0.015767328277791    -0.019629297380952     0.014284007237689
     0.011810282877511    -0.062903052025083     0.023301595802041
     0.007857758905359    -0.012880318577933     0.007293999704180
   3  22
     0.024827649213080     0.004592019982584     0.016659137714193
    -0.004838232486703     0.028229118370212    -0.016114013799652
    -0.008819686987626     0.008387887696443    -0.049422902654870
   3  23
    -0.010325544199459    -0.001181624400916     0.003960456840072
     0.009571350060226    -0.015625360828043    -0.016755048177043
     0.000756794406478    -0.008692243149902    -0.027894295355009
   3  24
    -0.056176052023197     0.008432773456500    -0.011212463682270
    -0.023502589132815     0.028106786690588    -0.012976847443574
     0.014684164041994    -0.002436977806730     0.027652306032509
   3  25
    -1.008264361858124     1.143125713617566    -0.034064786213461
     1.147406700349723    -1.004509769228228     0.032691833410433
    -0.005094100366458     0.008169436064485     0.110724862633101
   3  26
    -0.020690096374555     0.017319339767144     0.001160907738870
     0.014788381112253    -0.005031152679179    -0.017732524842570
    -0.018830982585131    -0.007511023893244    -0.015415939055619
   3  27
    -0.004912107681067    -0.007641500759213    -0.003705384142049
    -0.003377420081641    -0.016525856918187    -0.004520875640370
     0.008052383902536    -0.012298747193351    -0.012224785686200
   3  28
     0.101743625634459    -0.003751558253426    -0.002827217110873
     0.000589027883152    -0.849202042427188    -0.969856785136412
     0.011106194309835    -0.931976269449847    -0.828146621395799
   3  29
    -0.840509070228080    -0.000360553279540     0.967870009486303
    -0.004880074395338     0.101501932260265    -0.000453323131292
     0.928395725692311    -0.021219725984185    -0.839045383811268
   3  30
    -0.029416144951675     0.004126051009740     0.021411588444255
     0.012007645733091    -0.021242802814860     0.004183532244795
     0.024134861066321     0.022026044752038    -0.013671862559127
   4   1
    -0.025513225164229    -0.040496949467477    -0.031209080892243
    -0.042774607180471    -0.027707152134862     0.013638654830615
    -0.005495869130527    -0.016634804728604     0.011642732327595
   4   2
    -0.025569746290323    -0.044114723656662    -0.005391929036673
    -0.039001464121695    -0.027611755501795    -0.017093670771903
    -0.031215494929135     0.014422674802332     0.011634053459866
   4   3
    -0.770186045721777    -0.773537138580949     0.023232717102422
    -0.879499803309394    -0.771750205266488     0.079543681330666
    -0.049799480088383    -0.013944330572066     0.001051689501221
   4   4
     6.629392427351673     0.060592574139363    -0.017446420203838
     0.026084284314715     6.604740689631267     0.011767460537317
    -0.013906763940069    -0.002609325340801     6.939067195046013
   4   5
    -0.770101409518430    -0.881023748039386    -0.050038580866516
    -0.772148151432926    -0.771918536881824    -0.015014041977584
     0.023498811935194     0.080255375959300    -0.000021948385857
   4   6
    -0.014476054548807     0.002676154951541    -0.037807602860310
     0.032133690650600    -0.003115529015955     0.012971222553007
    -0.019327216401342    -0.001928193222100     0.001046897176317
   4   7
    -0.097489614226006     0.005174151761550     0.034462633317499
    -0.022127815652173    -0.044210778662684     0.025643207351086
     0.044729860539863     0.006858985278917    -0.055272723080363
   4   8
    -0.911252043743984    -0.035259016278285     0.954482095572996
    -0.006670758466994    -0.011844743524081    -0.024687602288243
     0.982427671902267     0.029179841097554    -0.893174527018993
   4   9
    -0.005959526171434    -0.013799639356989     0.006026414653178
    -0.038989289105467    -0.929035226459190    -0.945524684681563
    -0.036329759604228    -0.965689874834895    -0.880631193814495
   4  10
    -0.016031499091569    -0.018409503337331     0.016430526642568
    -0.018302818378950    -0.051807634878788    -0.041108261748033
     0.001451437453554    -0.041065885397116    -0.064090471482532
   4  11
     0.033513176252199    -0.019966508143218     0.012665681305964
    -0.018934700584618    -0.060576742991886     0.022377079396457
     0.012369361894976     0.022681631293627     0.010014876987527
   4  12
    -0.545733054055453     0.657061491964672     0.046963458677466
     0.657633441786466    -0.565954181226114    -0.062244721445316
     0.047100321975450    -0.061529092289817     0.088306328337270
   4  13
    -0.073602996996498    -0.010642978449487     0.031758016297357
    -0.009825088123379     0.067091984511533     0.005982338011257
     0.031102750130139     0.006274145376814     0.043444969277965
   4  14
    -0.027534645565535     0.011321605537898     0.027346917804344
     0.012301753399816    -0.004776164854432    -0.038955568845473
     0.026283953687158    -0.039163192467970    -0.078619314394330
   4  15
     0.047005114002750    -0.014201836089851    -0.003154227924090
    -0.013153371740166     0.008226033637001    -0.038743966673162
    -0.003569900290615    -0.038418254953694    -0.031263082558233
   4  16
     0.116066364866706    -0.000456920898072    -0.007964751598111
     0.009301466805650    -1.058756238035671     1.146423920326677
    -0.022514355610930     1.146342394555540    -0.956941010022496
   4  17
    -1.053526280265910     0.012458840525642    -1.138177087433743
     0.006659990572539     0.122290603357267     0.012282508436730
    -1.131041062299253     0.024606684119087    -0.972372369949223
   4  18
    -0.017904528362148    -0.008803144613482    -0.003763139922790
    -0.021350315965709    -0.005246172549831    -0.003869499920523
    -0.015316093511222    -0.011397611465499     0.004491095925379
   4  19
    -0.711966750369516    -0.011274621526408    -0.837139916749033
    -0.014768670501918     0.079172691061170     0.000186833008331
    -0.810317298153245     0.009423672506270    -0.760774489911273
   4  20
     0.068824314369274    -0.022328114168158     0.005184862620264
    -0.006141522648405    -0.730007396971314     0.834657237749646
     0.007624792879267     0.810769779705755    -0.777390154367089
   4  21
    -1.008264361858124     1.143125713617566    -0.034064786213461
     1.147406700349723    -1.004509769228228     0.032691833410433
    -0.005094100366458     0.008169436064485     0.110724862633101
   4  22
     0.015767328277791    -0.019629297380952     0.014284007237689
     0.011810282877511    -0.062903052025083     0.023301595802041
     0.007857758905359    -0.012880318577933     0.007293999704180
   4  23
     0.024827649213080     0.004592019982584     0.016659137714193
    -0.004838232486703     0.028229118370212    -0.016114013799652
    -0.008819686987626     0.008387887696443    -0.049422902654870
   4  24
    -0.010325544199459    -0.001181624400916     0.003960456840072
     0.009571350060226    -0.015625360828043    -0.016755048177043
     0.000756794406478    -0.008692243149902    -0.027894295355009
   4  25
    -0.056176052023197     0.008432773456500    -0.011212463682270
    -0.023502589132815     0.028106786690588    -0.012976847443574
     0.014684164041994    -0.002436977806730     0.027652306032509
   4  26
    -0.029416144951675     0.004126051009740     0.021411588444255
     0.012007645733091    -0.021242802814860     0.004183532244795
     0.024134861066321     0.022026044752038    -0.013671862559127
   4  27
    -0.020690096374555     0.017319339767144     0.001160907738870
     0.014788381112253    -0.005031152679179    -0.017732524842570
    -0.018830982585131    -0.007511023893244    -0.015415939055619
   4  28
    -0.004912107681067    -0.007641500759213    -0.003705384142049
    -0.003377420081641    -0.016525856918187    -0.004520875640370
     0.008052383902536    -0.012298747193351    -0.012224785686200
   4  29
     0.101743625634459    -0.003751558253426    -0.002827217110873
     0.000589027883152    -0.849202042427188    -0.969856785136412
     0.011106194309835    -0.931976269449847    -0.828146621395799
   4  30
    -0.840509070228080    -0.000360553279540     0.967870009486303
    -0.004880074395338     0.101501932260265    -0.000453323131292
     0.928395725692311    -0.021219725984185    -0.839045383811268
   5   1
    -0.770101409518430    -0.881023748039386    -0.050038580866516
    -0.772148151432926    -0.771918536881824    -0.015014041977584
     0.023498811935194     0.080255375959300    -0.000021948385857
   5   2
    -0.025513225164229    -0.040496949467477    -0.031209080892243
    -0.042774607180471    -0.027707152134862     0.013638654830615
    -0.005495869130527    -0.016634804728604     0.011642732327595
   5   3
    -0.025569746290323    -0.044114723656662    -0.005391929036673
    -0.039001464121695    -0.027611755501795    -0.017093670771903
    -0.031215494929135     0.014422674802332     0.011634053459866
   5   4
    -0.770186045721777    -0.773537138580949     0.023232717102422
    -0.879499803309394    -0.771750205266488     0.079543681330666
    -0.049799480088383    -0.013944330572066     0.001051689501221
   5   5
     6.629392427351673     0.060592574139363    -0.017446420203838
     0.026084284314715     6.604740689631267     0.011767460537317
    -0.013906763940069    -0.002609325340801     6.939067195046013
   5   6
    -0.016031499091569    -0.018409503337331     0.016430526642568
    -0.018302818378950    -0.051807634878788    -0.041108261748033
     0.001451437453554    -0.041065885397116    -0.064090471482532
   5   7
    -0.014476054548807     0.002676154951541    -0.037807602860310
     0.032133690650600    -0.003115529015955     0.012971222553007
    -0.019327216401342    -0.001928193222100     0.001046897176317
   5   8
    -0.097489614226006     0.005174151761550     0.034462633317499
    -0.022127815652173    -0.044210778662684     0.025643207351086
     0.044729860539863     0.006858985278917    -0.055272723080363
   5   9
    -0.911252043743984    -0.035259016278285     0.954482095572996
    -0.006670758466994    -0.011844743524081    -0.024687602288243
     0.982427671902267     0.029179841097554    -0.893174527018993
   5  10
    -0.005959526171434    -0.013799639356989     0.006026414653178
    -0.038989289105467    -0.929035226459190    -0.945524684681563
    -0.036329759604228    -0.965689874834895    -0.880631193814495
   5  11
     0.047005114002750    -0.014201836089851    -0.003154227924090
    -0.013153371740166     0.008226033637001    -0.038743966673162
    -0.003569900290615    -0.038418254953694    -0.031263082558233
   5  12
     0.033513176252199    -0.019966508143218     0.012665681305964
    -0.018934700584618    -0.060576742991886     0.022377079396457
     0.012369361894976     0.022681631293627     0.010014876987527
   5  13
    -0.545733054055453     0.657061491964672     0.046963458677466
     0.657633441786466    -0.565954181226114    -0.062244721445316
     0.047100321975450    -0.061529092289817     0.088306328337270
   5  14
    -0.073602996996498    -0.010642978449487     0.031758016297357
    -0.009825088123379     0.067091984511533     0.005982338011257
     0.031102750130139     0.006274145376814     0.043444969277965
   5  15
    -0.027534645565535     0.011321605537898     0.027346917804344
     0.012301753399816    -0.004776164854432    -0.038955568845473
     0.026283953687158    -0.039163192467970    -0.078619314394330
   5  16
     0.068824314369274    -0.022328114168158     0.005184862620264
    -0.006141522648405    -0.730007396971314     0.834657237749646
     0.007624792879267     0.810769779705755    -0.777390154367089
   5  17
     0.116066364866706    -0.000456920898072    -0.007964751598111
     0.009301466805650    -1.058756238035671     1.146423920326677
    -0.022514355610930     1.146342394555540    -0.956941010022496
   5  18
    -1.053526280265910     0.012458840525642    -1.138177087433743
     0.006659990572539     0.122290603357267     0.012282508436730
    -1.131041062299253     0.024606684119087    -0.972372369949223
   5  19
    -0.017904528362148    -0.008803144613482    -0.003763139922790
    -0.021350315965709    -0.005246172549831    -0.003869499920523
    -0.015316093511222    -0.011397611465499     0.004491095925379
   5  20
    -0.711966750369516    -0.011274621526408    -0.837139916749033
    -0.014768670501918     0.079172691061170     0.000186833008331
    -0.810317298153245     0.009423672506270    -0.760774489911273
   5  21
    -0.056176052023197     0.008432773456500    -0.011212463682270
    -0.023502589132815     0.028106786690588    -0.012976847443574
     0.014684164041994    -0.002436977806730     0.027652306032509
   5  22
    -1.008264361858124     1.143125713617566    -0.034064786213461
     1.147406700349723    -1.004509769228228     0.032691833410433
    -0.005094100366458     0.008169436064485     0.110724862633101
   5  23
     0.015767328277791    -0.019629297380952     0.014284007237689
     0.011810282877511    -0.062903052025083     0.023301595802041