30
Lattice="-2.0087751310576847 -6.049218159785703 4.034415975694015 0.0024123392711237 4.026564704946987 8.06065299812761 -6.052481822325806 6.052507776557647 -0.0081583171047255" Properties=Z:I:1:pos:R:3:vasp_force:R:3 uuid=fbcb0432-0d5a-4b73-838d-e2c9ed30fd2e vasp_virial="0.10690966878959415 0.05805859269638371 0.008351502896980207 0.05805859269638371 -0.006759133314492062 -0.02711016884559776 0.008351502896980207 -0.02711016884559776 -0.1885899443676276" vasp_energy=-120.6222711 pbc="T T T"
      47      -4.04550971       0.00586624       8.10423761       0.01552200       0.05487200      -0.03637600 
      47      -2.02835791       2.02838398       8.09888530      -0.01138200      -0.00819900       0.00066400 
      47      -0.01628136       0.01631792       0.03822818      -0.00375300       0.00202200       0.00175600 
      47      -6.06304943       2.03410619       4.06448171      -0.00386200       0.00070300       0.00080000 
      47      -4.04856055       4.04860484       4.06447758      -0.01201800      -0.00630800       0.00135600 
      47      -4.02648507       2.01197633      10.07553518      -0.00054300      -0.00172100      -0.00372900 
      47      -2.01440853      -0.00008972       2.01487806      -0.00186300       0.00144000      -0.00085400 
      47      -2.00869477      -4.03480923       6.04928991      -0.00010400       0.00042300      -0.00150600 
      47      -6.04668771       4.03219719       6.04112746      -0.00125000       0.00024600      -0.00064700 
      47      -4.03219883       6.04669584       6.04112334      -0.00843800       0.00030800       0.00634400 
      47      -6.02518988       1.99615588      12.05104761       0.00237800      -0.00093500      -0.00026800 
      47      -4.01311334      -0.01591018       3.99039048       0.00464800      -0.00167800      -0.00125000 
      47      -1.99862445       1.99858847       3.99038636       0.00360500      -0.00217100      -0.00096300 
      47      -1.99291070      -2.03613104       8.02479820       0.00627400      -0.00343900      -0.00169900 
      47      -6.03090364       6.03087539       8.01663576       0.00255600      -0.00189000      -0.00049900 
      46      -6.03189814      -0.01160048       6.01224981       0.00247900       0.00090400       0.00476700 
      46      -4.01740925       2.00289817       6.01224568       0.00037200      -0.00961500       0.01326700 
      46      -2.00292037       4.01739682       6.01224155       0.00128700      -0.01455600       0.01713900 
      46      -1.99720661      -0.01732269      10.04665340       0.00313700       0.00161900       0.00526600 
      46      -6.03761189       4.02311903       1.97783796       0.00004600       0.00018900       0.00331700 
      46      -2.01158264      -2.01742318       4.03210781      -0.00031600       0.00022500      -0.00040800 
      46      -6.04957557       6.04958324       4.02394536      -0.00067900       0.00061800      -0.00083700 
      46      -6.04386182       2.01486373       8.05835721       0.00539300      -0.00400200      -0.00091300 
      46      -4.02937293       4.02936238       8.05835309      -0.00017000      -0.00030300      -0.00092900 
      46      -2.01729639       2.01729633      -0.00230404      -0.00015100       0.00065300      -0.00068200 
      46      -4.03873582      -2.00472833       6.07693588       0.00139400      -0.00332300      -0.00511700 
      46      -2.02424694       0.00977032       6.07693175      -0.00604300      -0.00108900       0.00560200 
      46      -6.06223988       8.07677674       6.06876931      -0.00009400      -0.00158100      -0.00121900 
      46      -6.05652612       4.04205723      10.10318116       0.00016400      -0.00186300      -0.00080100 
      46      -4.04444958       2.02999118       2.04252403       0.00141000      -0.00155000      -0.00158100 
30
Lattice="-2.0087751310576847 -6.049218159785703 4.034415975694015 0.0024123392711237 4.026564704946987 8.06065299812761 -6.052481822325806 6.052507776557647 -0.0081583171047255" Properties=Z:I:1:pos:R:3:vasp_force:R:3 uuid=ce52cf6e-1856-41f3-a126-b57cbfdde8a0 vasp_virial="0.10717659779475114 0.05300228234582404 0.00973217016503351 0.05300228234582404 -0.007590601824808608 -0.016279601165090734 0.00973217016503351 -0.016279601165090734 -0.19569577857387527" vasp_energy=-120.62226052 pbc="T T T"
      47      -4.04284679       0.01388533       8.09888943      -0.00270600      -0.01133800      -0.01152100 
      47      -2.02835791       2.02838398       8.09888530       0.00533700       0.00034800      -0.00712000 
      47      -0.01628136       0.01631792       0.03822818      -0.00303000       0.00229400       0.00128200 
      47      -6.06304943       2.03410619       4.06448171      -0.00395000       0.00122700       0.00096700 
      47      -4.04856055       4.04860484       4.06447758      -0.00292200       0.00141500      -0.00012300 
      47      -4.02648775       2.00750754      10.06658924      -0.00131900       0.03158000       0.06556500 
      47      -2.01440853      -0.00008972       2.01487806      -0.00518100      -0.00120800      -0.00104500 
      47      -2.00869477      -4.03480923       6.04928991      -0.00064300       0.00027900      -0.00153100 
      47      -6.04668771       4.03219719       6.04112746      -0.00076800       0.00046700      -0.00127000 
      47      -4.03219883       6.04669584       6.04112334      -0.00414600      -0.00228700      -0.00099200 
      47      -6.02518988       1.99615588      12.05104761       0.01076500      -0.00142200      -0.00824900 
      47      -4.01311334      -0.01591018       3.99039048       0.00462100      -0.01422100      -0.01305700 
      47      -1.99862445       1.99858847       3.99038636       0.00382200      -0.00211200      -0.00191700 
      47      -1.99291070      -2.03613104       8.02479820       0.00236600      -0.00086000      -0.00087900 
      47      -6.03090364       6.03087539       8.01663576       0.00335400      -0.00233500      -0.00090100 
      46      -6.03189814      -0.01160048       6.01224981       0.00030500       0.00015800       0.00254900 
      46      -4.01740925       2.00289817       6.01224568       0.00012600       0.00024400       0.00174400 
      46      -2.00292037       4.01739682       6.01224155       0.00084200      -0.00005800       0.00267000 
      46      -1.99720661      -0.01732269      10.04665340       0.00422800      -0.00316600       0.00377200 
      46      -6.03761189       4.02311903       1.97783796       0.00056200       0.00034600       0.00342400 
      46      -2.01158264      -2.01742318       4.03210781      -0.00905500       0.00088400      -0.00821400 
      46      -6.04957557       6.04958324       4.02394536      -0.00043500       0.00021300      -0.00049400 
      46      -6.04386182       2.01486373       8.05835721      -0.01008000       0.00165000      -0.00849300 
      46      -4.02937293       4.02936238       8.05835309      -0.00034700       0.00518600      -0.00457100 
      46      -2.01729639       2.01729633      -0.00230404      -0.00030400       0.00538900      -0.00430700 
      46      -4.03873582      -2.00472833       6.07693588       0.00101800      -0.00166800      -0.00270200 
      46      -2.02424694       0.00977032       6.07693175       0.00124700      -0.00219400      -0.00175600 
      46      -6.06223988       8.07677674       6.06876931       0.00040200      -0.00115400      -0.00134800 
      46      -6.05652612       4.04205723      10.10318116       0.00430900      -0.00574300      -0.00002400 
      46      -4.04444958       2.02999118       2.04252403       0.00158100      -0.00191400      -0.00145700 
30
Lattice="-2.0087751310576847 -6.049218159785703 4.034415975694015 0.0024123392711237 4.026564704946987 8.06065299812761 -6.052481822325806 6.052507776557647 -0.0081583171047255" Properties=Z:I:1:pos:R:3:vasp_force:R:3 uuid=ddce9047-bd3b-4246-8ec9-2e0fd98c4770 vasp_virial="0.10647399156278624 0.052818193376750276 0.009262743293895388 0.052818193376750276 -0.009738306464002635 -0.01688095846406506 0.009262743293895388 -0.01688095846406506 -0.19629099957388044" vasp_energy=-120.62228261 pbc="T T T"
      47      -4.04284679       0.01388533       8.09888943      -0.00266500       0.00783300       0.00746700 
      47      -2.02835791       2.02838398       8.09888530      -0.00931000       0.00067400       0.00752500 
      47      -0.01628136       0.01631792       0.03822818      -0.00408300       0.00242700       0.00204300 
      47      -6.06304943       2.03410619       4.06448171      -0.00374400       0.00138800       0.00086800 
      47      -4.04856055       4.04860484       4.06447758      -0.00296500       0.00226300       0.00096300 
      47      -4.03355612       2.01904741      10.07552565       0.04771500      -0.04830300      -0.00129500 
      47      -2.01440853      -0.00008972       2.01487806      -0.00146400       0.00170200      -0.00144300 
      47      -2.00869477      -4.03480923       6.04928991      -0.00049000       0.00041500      -0.00155900 
      47      -6.04668771       4.03219719       6.04112746      -0.00062500       0.00060900      -0.00129600 
      47      -4.03219883       6.04669584       6.04112334      -0.00036100       0.00067700      -0.00140400 
      47      -6.02518988       1.99615588      12.05104761      -0.00374500      -0.00111400       0.00636200 
      47      -4.01311334      -0.01591018       3.99039048       0.00470400       0.00445600       0.00554200 
      47      -1.99862445       1.99858847       3.99038636       0.00377500      -0.00127300      -0.00083700 
      47      -1.99291070      -2.03613104       8.02479820       0.00258100      -0.00071000      -0.00098200 
      47      -6.03090364       6.03087539       8.01663576       0.00230400      -0.00220600      -0.00015400 
      46      -6.03189814      -0.01160048       6.01224981       0.00005700       0.00050400       0.00312700 
      46      -4.01740925       2.00289817       6.01224568       0.00055300       0.00039100       0.00307400 
      46      -2.00292037       4.01739682       6.01224155       0.00088700       0.00081300       0.00250200 
      46      -1.99720661      -0.01732269      10.04665340      -0.01167300       0.01226300       0.00321400 
      46      -6.03761189       4.02311903       1.97783796      -0.00031600      -0.00002200       0.00351800 
      46      -2.01158264      -2.01742318       4.03210781      -0.00629300      -0.00041900      -0.00726600 
      46      -6.04957557       6.04958324       4.02394536      -0.00021500       0.00036800      -0.00058200 
      46      -6.04386182       2.01486373       8.05835721      -0.00715400       0.00026400      -0.00751700 
      46      -4.02937293       4.02936238       8.05835309       0.00049300       0.00630600      -0.00816300 
      46      -2.01729639       2.01729633      -0.00230404       0.00049000       0.00645700      -0.00772800 
      46      -4.03873582      -2.00472833       6.07693588       0.00144500      -0.00151300      -0.00136700 
      46      -2.02424694       0.00977032       6.07693175       0.00100100      -0.00185300      -0.00118500 
      46      -6.06223988       8.07677674       6.06876931      -0.00047700      -0.00152200      -0.00126600 
      46      -6.05652612       4.04205723      10.10318116      -0.01205700       0.01017500      -0.00054100 
      46      -4.04444958       2.02999118       2.04252403       0.00163100      -0.00105200      -0.00162000 
30
Lattice="-2.0087751310576847 -6.049218159785703 4.034415975694015 0.0024123392711237 4.026564704946987 8.06065299812761 -6.052481822325806 6.052507776557647 -0.0081583171047255" Properties=Z:I:1:pos:R:3:vasp_force:R:3 uuid=2e10100e-1ce3-4328-94c4-a58543ff214f vasp_virial="0.10644331006794058 0.05205422415509412 0.009330242582555772 0.05205422415509412 -0.0084926377732701 -0.0173074312424193 0.009330242582555772 -0.0173074312424193 -0.1960547520635691" vasp_energy=-120.62226211 pbc="T T T"
      47      -4.04284679       0.01388533       8.09888943      -0.00276500      -0.00474500      -0.00565300 
      47      -2.02835791       2.02838398       8.09888530       0.00306900       0.00059000      -0.00593400 
      47      -0.01628136       0.01631792       0.03822818      -0.00262700       0.00210200       0.00151500 
      47      -6.06304943       2.03410619       4.06448171      -0.00349800       0.00087100       0.00112000 
      47      -4.04856055       4.04860484       4.06447758      -0.00298900       0.00177300       0.00036200 
      47      -4.01941402       2.00490525      10.07554472      -0.04941900       0.04954000      -0.00005000 
      47      -2.01440853      -0.00008972       2.01487806      -0.00184900       0.00164400      -0.00040500 
      47      -2.00869477      -4.03480923       6.04928991      -0.00032000       0.00045300      -0.00148000 
      47      -6.04668771       4.03219719       6.04112746      -0.00045500       0.00064700      -0.00121700 
      47      -4.03219883       6.04669584       6.04112334      -0.00074900       0.00061600      -0.00036700 
      47      -6.02518988       1.99615588      12.05104761       0.00867100      -0.00119900      -0.00712600 
      47      -4.01311334      -0.01591018       3.99039048       0.00460700      -0.00816000      -0.00760400 
      47      -1.99862445       1.99858847       3.99038636       0.00375300      -0.00176500      -0.00143600 
      47      -1.99291070      -2.03613104       8.02479820       0.00282700      -0.00122700      -0.00073000 
      47      -6.03090364       6.03087539       8.01663576       0.00376100      -0.00253200      -0.00068200 
      46      -6.03189814      -0.01160048       6.01224981       0.00031500       0.00023000       0.00270500 
      46      -4.01740925       2.00289817       6.01224568       0.00006900       0.00040600       0.00226300 
      46      -2.00292037       4.01739682       6.01224155       0.00066700      -0.00001100       0.00250400 
      46      -1.99720661      -0.01732269      10.04665340       0.01200900      -0.01142000       0.00276400 
      46      -6.03761189       4.02311903       1.97783796       0.00072500       0.00041700       0.00323400 
      46      -2.01158264      -2.01742318       4.03210781       0.00574300       0.00108300       0.00654500 
      46      -6.04957557       6.04958324       4.02394536      -0.00025700       0.00035100      -0.00055700 
      46      -6.04386182       2.01486373       8.05835721       0.00488500       0.00176300       0.00629700 
      46      -4.02937293       4.02936238       8.05835309      -0.00093200      -0.00580500       0.00571900 
      46      -2.01729639       2.01729633      -0.00230404      -0.00093700      -0.00565200       0.00615200 
      46      -4.03873582      -2.00472833       6.07693588       0.00096100      -0.00149700      -0.00218200 
      46      -2.02424694       0.00977032       6.07693175       0.00126000      -0.00212700      -0.00160700 
      46      -6.06223988       8.07677674       6.06876931       0.00056600      -0.00108400      -0.00155100 
      46      -6.05652612       4.04205723      10.10318116       0.01149800      -0.01338000      -0.00097600 
      46      -4.04444958       2.02999118       2.04252403       0.00141200      -0.00187900      -0.00162000 
30
Lattice="-2.0087751310576847 -6.049218159785703 4.034415975694015 0.0024123392711237 4.026564704946987 8.06065299812761 -6.052481822325806 6.052507776557647 -0.0081583171047255" Properties=Z:I:1:pos:R:3:vasp_force:R:3 uuid=0b479caf-7dbb-4f05-9103-dd52b9cc3270 vasp_virial="0.10699250882567735 0.04968868090249612 0.010763068391846644 0.04968868090249612 -0.009940804329983786 -0.009293424788741017 0.010763068391846644 -0.009293424788741017 -0.20265127345537934" vasp_energy=-120.62229746 pbc="T T T"
      47      -4.04284679       0.01388533       8.09888943      -0.00282200       0.00183600       0.00116100 
      47      -2.02835791       2.02838398       8.09888530      -0.00362600       0.00111900       0.00076200 
      47      -0.01628136       0.01631792       0.03822818       0.00018000      -0.00015000       0.00092300 
      47      -6.06304943       2.03410619       4.06448171      -0.00376100       0.00049200       0.00114700 
      47      -4.04856055       4.04860484       4.06447758      -0.00295200       0.00228800       0.00049900 
      47      -4.02648507       2.01197633      10.07553518      -0.00803500       0.00029100       0.00614000 
      47      -2.01440853      -0.00008972       2.01487806      -0.00232500       0.00134500      -0.00034100 
      47      -2.00869477      -4.03480923       6.04928991      -0.00010000       0.00046600      -0.00152400 
      47      -6.04668771       4.03219719       6.04112746      -0.00075300       0.00041900      -0.00120700 
      47      -4.03219883       6.04669584       6.04112334      -0.00071300      -0.00164600      -0.00376100 
      47      -6.02785280       1.98813679      12.05639579       0.02043000       0.05084700      -0.03711500 
      47      -4.01311334      -0.01591018       3.99039048      -0.00404200      -0.00989500      -0.00039500 
      47      -1.99862445       1.99858847       3.99038636       0.00353500      -0.00189100      -0.00135300 
      47      -1.99291070      -2.03613104       8.02479820       0.00230200      -0.00116800      -0.00089200 
      47      -6.03090364       6.03087539       8.01663576      -0.00554600      -0.01145000      -0.00069000 
      46      -6.03189814      -0.01160048       6.01224981       0.00038400      -0.00144700      -0.00043800 
      46      -4.01740925       2.00289817       6.01224568       0.00021100       0.00034700       0.00269000 
      46      -2.00292037       4.01739682       6.01224155       0.00092400       0.00048300       0.00244900 
      46      -1.99720661      -0.01732269      10.04665340      -0.00027000       0.00049300       0.00316000 
      46      -6.03761189       4.02311903       1.97783796      -0.00715200       0.00119600       0.01051200 
      46      -2.01158264      -2.01742318       4.03210781      -0.00076900       0.00060800      -0.00073400 
      46      -6.04957557       6.04958324       4.02394536      -0.00020600       0.00031500      -0.00054800 
      46      -6.04386182       2.01486373       8.05835721      -0.00101300       0.00126300      -0.00034600 
      46      -4.02937293       4.02936238       8.05835309      -0.00015900      -0.00025800      -0.00095200 
      46      -2.01729639       2.01729633      -0.00230404       0.00636100      -0.00456300      -0.00131100 
      46      -4.03873582      -2.00472833       6.07693588       0.00351600      -0.00090000       0.00005800 
      46      -2.02424694       0.00977032       6.07693175       0.00097700      -0.00195500      -0.00146000 
      46      -6.06223988       8.07677674       6.06876931       0.00332100      -0.00039800       0.00087200 
      46      -6.05652612       4.04205723      10.10318116       0.00049100      -0.01615500       0.01317000 
      46      -4.04444958       2.02999118       2.04252403       0.00161100      -0.01193300       0.00952600 
30
Lattice="-2.0087751310576847 -6.049218159785703 4.034415975694015 0.0024123392711237 4.026564704946987 8.06065299812761 -6.052481822325806 6.052507776557647 -0.0081583171047255" Properties=Z:I:1:pos:R:3:vasp_force:R:3 uuid=27806936-153e-4cbc-9ccf-474bf60fc5e7 vasp_virial="0.10656603604732312 0.057849958531433425 0.008170482077390996 0.057849958531433425 -0.006627202886655858 -0.027644026855911705 0.008170482077390996 -0.027644026855911705 -0.18841812799649207" vasp_energy=-120.62227062 pbc="T T T"
      47      -4.04284679       0.01388533       8.09888943      -0.00262300       0.00141700       0.00081500 
      47      -2.02835791       2.02838398       8.09888530      -0.00277800       0.00015100       0.00098400 
      47      -0.01628136       0.01631792       0.03822818      -0.00699300       0.00475500       0.00263400 
      47      -6.06304943       2.03410619       4.06448171      -0.00353300       0.00179700       0.00083700 
      47      -4.04856055       4.04860484       4.06447758      -0.00305700       0.00180300       0.00080700 
      47      -4.02648507       2.01197633      10.07553518       0.00743700       0.00095700      -0.00812300 
      47      -2.01440853      -0.00008972       2.01487806      -0.00099600       0.00208400      -0.00153200 
      47      -2.00869477      -4.03480923       6.04928991      -0.00077100       0.00046500      -0.00152300 
      47      -6.04668771       4.03219719       6.04112746      -0.00038800       0.00088600      -0.00132400 
      47      -4.03219883       6.04669584       6.04112334      -0.00047700       0.00299400       0.00196900 
      47      -6.02252697       2.00417497      12.04569942      -0.01469800      -0.05484400       0.03708400 
      47      -4.01311334      -0.01591018       3.99039048       0.01361300       0.00642900      -0.00180800 
      47      -1.99862445       1.99858847       3.99038636       0.00393400      -0.00108100      -0.00093700 
      47      -1.99291070      -2.03613104       8.02479820       0.00303800      -0.00071000      -0.00083300 
      47      -6.03090364       6.03087539       8.01663576       0.01116600       0.00645700      -0.00020200 
      46      -6.03189814      -0.01160048       6.01224981      -0.00006900       0.00219900       0.00626000 
      46      -4.01740925       2.00289817       6.01224568       0.00035600       0.00049800       0.00262800 
      46      -2.00292037       4.01739682       6.01224155       0.00057700       0.00036200       0.00253700 
      46      -1.99720661      -0.01732269      10.04665340      -0.00006400       0.00101300       0.00281700 
      46      -6.03761189       4.02311903       1.97783796       0.00731100      -0.00068900      -0.00361100 
      46      -2.01158264      -2.01742318       4.03210781       0.00004300       0.00006300      -0.00016600 
      46      -6.04957557       6.04958324       4.02394536      -0.00032400       0.00046000      -0.00060200 
      46      -6.04386182       2.01486373       8.05835721      -0.00119600       0.00086200      -0.00071300 
      46      -4.02937293       4.02936238       8.05835309      -0.00038200       0.00070600      -0.00133600 
      46      -2.01729639       2.01729633      -0.00230404      -0.00671200       0.00549700      -0.00047800 
      46      -4.03873582      -2.00472833       6.07693588      -0.00116000      -0.00202800      -0.00361000 
      46      -2.02424694       0.00977032       6.07693175       0.00121700      -0.00196100      -0.00132300 
      46      -6.06223988       8.07677674       6.06876931      -0.00330300      -0.00217000      -0.00366100 
      46      -6.05652612       4.04205723      10.10318116      -0.00055700       0.01305000      -0.01537500 
      46      -4.04444958       2.02999118       2.04252403       0.00139000       0.00857900      -0.01221500 
30
Lattice="-2.0087751310576847 -6.049218159785703 4.034415975694015 0.0024123392711237 4.026564704946987 8.06065299812761 -6.052481822325806 6.052507776557647 -0.0081583171047255" Properties=Z:I:1:pos:R:3:vasp_force:R:3 uuid=d07c333a-63fe-4f39-8dd8-1288248e24db vasp_virial="0.09607910110908713 0.058663018144842594 0.004823130989732875 0.058663018144842594 -0.017276749747573678 -0.017012888891901265 0.004823130989732875 -0.017012888891901265 -0.20345819676981938" vasp_energy=-120.62227764 pbc="T T T"
      47      -4.04284679       0.01388533       8.09888943      -0.00298000       0.00200800       0.00191700 
      47      -2.02835791       2.02838398       8.09888530      -0.00340400       0.00029700       0.00051100 
      47      -0.01628136       0.01631792       0.03822818      -0.00673000       0.00539100       0.00130100 
      47      -6.06304943       2.03410619       4.06448171      -0.00364300       0.00123100       0.00085700 
      47      -4.04856055       4.04860484       4.06447758      -0.00288400       0.00236500       0.00117000 
      47      -4.02648507       2.01197633      10.07553518      -0.00900100       0.00047400       0.00715600 
      47      -2.01440853      -0.00008972       2.01487806      -0.00194300       0.00185500      -0.00051000 
      47      -2.00869477      -4.03480923       6.04928991      -0.00037200       0.00050800      -0.00154100 
      47      -6.04668771       4.03219719       6.04112746      -0.00046700       0.00125300      -0.00046800 
      47      -4.03219883       6.04669584       6.04112334      -0.00007700       0.01315700       0.01099200 
      47      -6.02518721       2.00062467      12.05999355       0.00193700      -0.03172600      -0.06361700 
      47      -4.01311334      -0.01591018       3.99039048       0.00904100       0.00171300      -0.00145700 
      47      -1.99862445       1.99858847       3.99038636       0.00422200      -0.00148300      -0.00113400 
      47      -1.99291070      -2.03613104       8.02479820       0.00295000      -0.00066000      -0.00098800 
      47      -6.03090364       6.03087539       8.01663576       0.00626000       0.00039900      -0.00030400 
      46      -6.03189814      -0.01160048       6.01224981       0.00009400       0.01282900       0.01495300 
      46      -4.01740925       2.00289817       6.01224568       0.00027000       0.00060800       0.00282600 
      46      -2.00292037       4.01739682       6.01224155       0.00089400       0.00051500       0.00275200 
      46      -1.99720661      -0.01732269      10.04665340      -0.00039400       0.00066000       0.00313000 
      46      -6.03761189       4.02311903       1.97783796      -0.00820500      -0.00005000       0.01100400 
      46      -2.01158264      -2.01742318       4.03210781      -0.00036300       0.00024600      -0.00059600 
      46      -6.04957557       6.04958324       4.02394536      -0.00028600       0.00054900      -0.00020700 
      46      -6.04386182       2.01486373       8.05835721      -0.00097000       0.00087800       0.00003300 
      46      -4.02937293       4.02936238       8.05835309      -0.00035600       0.00062300      -0.00125700 
      46      -2.01729639       2.01729633      -0.00230404      -0.00523100       0.00488200      -0.00194400 
      46      -4.03873582      -2.00472833       6.07693588       0.00865700      -0.00191100       0.00519600 
      46      -2.02424694       0.00977032       6.07693175       0.00135600      -0.00181500      -0.00136400 
      46      -6.06223988       8.07677674       6.06876931       0.00996400      -0.00199800       0.00718900 
      46      -6.05652612       4.04205723      10.10318116       0.00018200      -0.00735000       0.00272800 
      46      -4.04444958       2.02999118       2.04252403       0.00147900      -0.00545000       0.00167100 
30
Lattice="-2.0087751310576847 -6.049218159785703 4.034415975694015 0.0024123392711237 4.026564704946987 8.06065299812761 -6.052481822325806 6.052507776557647 -0.0081583171047255" Properties=Z:I:1:pos:R:3:vasp_force:R:3 uuid=26325adc-79cb-49c4-a084-d862d9e2cb1a vasp_virial="0.11725546885154023 0.047881540856088575 0.01513518140734877 0.047881540856088575 0.00034976904124017023 -0.016331759706328303 0.01513518140734877 -0.016331759706328303 -0.18932323209443816" vasp_energy=-120.62227134 pbc="T T T"
      47      -4.04284679       0.01388533       8.09888943      -0.00245400       0.00125300       0.00012200 
      47      -2.02835791       2.02838398       8.09888530      -0.00298800       0.00099700       0.00130300 
      47      -0.01628136       0.01631792       0.03822818      -0.00006600      -0.00077600       0.00228700 
      47      -6.06304943       2.03410619       4.06448171      -0.00364600       0.00108300       0.00119900 
      47      -4.04856055       4.04860484       4.06447758      -0.00311700       0.00173800       0.00022500 
      47      -4.02648507       2.01197633      10.07553518       0.00849200       0.00087800      -0.00910100 
      47      -2.01440853      -0.00008972       2.01487806      -0.00139700       0.00157500      -0.00131000 
      47      -2.00869477      -4.03480923       6.04928991      -0.00048600       0.00043700      -0.00144900 
      47      -6.04668771       4.03219719       6.04112746      -0.00066200       0.00004500      -0.00202400 
      47      -4.03219883       6.04669584       6.04112334      -0.00112900      -0.01248600      -0.01328700 
      47      -6.02519256       1.99168708      12.04210167       0.00358900       0.02754000       0.06184800 
      47      -4.01311334      -0.01591018       3.99039048       0.00022300      -0.00544700      -0.00077000 
      47      -1.99862445       1.99858847       3.99038636       0.00325600      -0.00147800      -0.00112100 
      47      -1.99291070      -2.03613104       8.02479820       0.00241000      -0.00121300      -0.00070000 
      47      -6.03090364       6.03087539       8.01663576      -0.00028100      -0.00507300      -0.00048200 
      46      -6.03189814      -0.01160048       6.01224981       0.00024600      -0.01143800      -0.00856300 
      46      -4.01740925       2.00289817       6.01224568       0.00032800       0.00023100       0.00252500 
      46      -2.00292037       4.01739682       6.01224155       0.00063300       0.00032600       0.00227500 
      46      -1.99720661      -0.01732269      10.04665340       0.00008900       0.00085500       0.00288000 
      46      -6.03761189       4.02311903       1.97783796       0.00829600       0.00046600      -0.00404300 
      46      -2.01158264      -2.01742318       4.03210781      -0.00036700       0.00044500      -0.00025700 