  30
   1   1
     6.582311850668645    -0.455004542386753    -0.576379684366293
    -0.453972915752853     6.700200835389662     0.486248286133455
    -0.556616373168290     0.462714474657940     6.642632015803978
   1   2
    -0.720349486137453    -0.779485867397094    -0.021758922621146
    -0.760641155282721    -0.760868989747942     0.056684795687575
    -0.032399683252171     0.064788426523651    -0.113967112759171
   1   3
    -0.720492547035690    -0.760611331812268    -0.031806620386055
    -0.779591742576456    -0.760821298036160     0.063883209571253
    -0.022332390453388     0.057620014196161    -0.113985343768898
   1   4
    -0.117193397210770    -0.036197865936873    -0.007164667262548
    -0.028779346184404    -0.791419529228899     0.740991338896674
    -0.018254260578615     0.740141909335249    -0.734940711819964
   1   5
    -1.455339583358220     0.031148063820599    -1.398111573303884
     0.030991472903098    -0.140932258299935    -0.033724977948795
    -1.398445843455174    -0.032892963827659    -1.440662066820254
   1   6
    -0.117222363225424    -0.028893716030212    -0.017515182067357
    -0.036046277694724    -0.791508741466617     0.739554377557341
    -0.008030329595374     0.741720755327106    -0.734940956825674
   1   7
    -0.010374933162112    -0.001169534100488     0.013082306209650
    -0.001109901953199    -0.021122155396900    -0.006653700150987
     0.012367674767999    -0.005731110808255    -0.015228075828306
   1   8
     0.019705143249936     0.013010601534111    -0.003762396875868
     0.012913132848225     0.010948881028289    -0.016537775723371
    -0.004480208212889    -0.015734306570881     0.011522417918428
   1   9
     0.003826045922627    -0.004325101975561     0.011589283295130
    -0.004389857051701     0.019638813922519     0.004682320552309
     0.010896598654791     0.005502736537189     0.015028249273884
   1  10
     0.006018695870624    -0.004295679487709    -0.007611031928571
    -0.004359021766572     0.009339535270604     0.001577761209018
    -0.008323034259305     0.002397592791897    -0.012744031597185
   1  11
    -0.012584634654482     0.013538306662619     0.010679095240260
     0.013600418057743    -0.019216170161053    -0.005108643503042
     0.009962637888900    -0.004178733384533    -0.012753234382778
   1  12
    -0.017698235019733     0.018138046913942     0.011987065673180
     0.018072470565729    -0.016259164348983    -0.018710742213645
     0.011257635476889    -0.017934090668310    -0.011195140268906
   1  13
    -0.003588437416920     0.022606040896340     0.006689133464112
     0.010496966455452    -0.018070750347994    -0.011125727144768
     0.003936271252971    -0.023990829452845     0.001949483524713
   1  14
    -0.014897045891244     0.005401052850053     0.006010097828946
     0.019583084414968    -0.006779413265603     0.001587595058668
     0.020586684692210     0.006271381661358    -0.004597925532209
   1  15
    -0.000035582991750    -0.005474916935357    -0.004028911480523
    -0.007360287788621     0.004668286128417    -0.000478309381664
    -0.007186697703160    -0.000670375497826    -0.005392128997226
   1  16
     0.009522768367247     0.003668722323185    -0.003623599147552
    -0.003953175792480     0.003815215206505     0.009486601749275
    -0.002114481245648     0.003325880873307     0.012276597736268
   1  17
     0.014403360518918    -0.009007562616322    -0.006834051626244
    -0.000992182610992     0.021325668570567     0.000216836334131
    -0.006419855064483     0.008110511428159     0.006113154912826
   1  18
    -0.006629331280294     0.002774093325436     0.024656782947382
     0.001213909682191    -0.009656769806074    -0.025050719773611
     0.009309474819373    -0.013642554826565    -0.022882340564376
   1  19
    -0.893892094523111     1.006032464564992    -0.012820128892775
     1.005202928918784    -0.894087242511699     0.005585233887717
    -0.014287567451254     0.005639374035922     0.088874011593471
   1  20
    -0.047194733780081     0.013106842140048    -0.006100919693055
    -0.010030941893587     0.053270639279195     0.005614639562922
    -0.005121627692403    -0.009762091614003    -0.040844225471687
   1  21
     0.024525288187831    -0.008279617863375     0.007727418767860
     0.017580939270980    -0.079702277751258    -0.002925186084257
     0.006788227610991     0.015009317499869     0.017048581232789
   1  22
    -0.014416270709714    -0.008426231355233     0.013694943511660
    -0.010331653207908    -0.027271607294315    -0.006719824246059
     0.013805862141759     0.001164183160208    -0.011908681309619
   1  23
     0.094861649858112     0.000555746534294    -0.012635715415021
     0.000398990043583    -0.887557899103868    -1.013074710848045
    -0.014558776645963    -1.014206737825407    -0.890744501698387
   1  24
    -0.888888701302343    -0.006392319477014     1.014412756922904
    -0.004609216907552     0.110287051448992     0.006963335730600
     1.013537791400743     0.004409327625329    -0.901517577686253
   1  25
    -0.881139018948429    -0.000858758738708     0.998360115374098
    -0.004287433645179     0.099896464673649     0.005382823119858
     0.995916287531984    -0.002981358944964    -0.891195930914940
   1  26
     0.082950260945286     0.001293635362794    -0.012844923335515
     0.006326616082182    -0.872270570661823    -0.988376704958016
    -0.008435193522165    -0.991164023186830    -0.878138880842515
   1  27
    -0.014143677681291    -0.010238838094706     0.012002518463814
    -0.012890253897324    -0.030345066844358    -0.008188408778531
     0.009122824928451     0.004302880164398    -0.010007667657378
   1  28
     0.020660454446574    -0.007656380456251     0.004882494359470
     0.015497974442418    -0.067180133438311     0.002773421373015
     0.006064556094986     0.014308648411757     0.009412512546095
   1  29
    -0.042152709684565     0.011785950879515    -0.005030917467993
    -0.009989405443459     0.041232576460858     0.007460218204600
    -0.003368277485786    -0.008421499720039    -0.034876886999064
   1  30
    -0.880551650734876     0.983258912336705    -0.007745323023264
     0.981453536169246    -0.879552426969035    -0.002017749693637
    -0.013179011158238     0.003883753765034     0.077665539769678
   2   1
    -0.720492547035690    -0.760611331812268    -0.031806620386055
    -0.779591742576456    -0.760821298036160     0.063883209571253
    -0.022332390453388     0.057620014196161    -0.113985343768898
   2   2
     6.582311850668645    -0.455004542386753    -0.576379684366293
    -0.453972915752853     6.700200835389662     0.486248286133456
    -0.556616373168290     0.462714474657941     6.642632015803978
   2   3
    -0.720349486137453    -0.779485867397094    -0.021758922621146
    -0.760641155282721    -0.760868989747942     0.056684795687575
    -0.032399683252171     0.064788426523651    -0.113967112759171
   2   4
    -0.117222363225424    -0.028893716030212    -0.017515182067357
    -0.036046277694724    -0.791508741466616     0.739554377557341
    -0.008030329595374     0.741720755327105    -0.734940956825674
   2   5
    -0.117193397210770    -0.036197865936873    -0.007164667262548
    -0.028779346184404    -0.791419529228898     0.740991338896674
    -0.018254260578615     0.740141909335249    -0.734940711819964
   2   6
    -1.455339583358220     0.031148063820598    -1.398111573303884
     0.030991472903098    -0.140932258299935    -0.033724977948795
    -1.398445843455174    -0.032892963827659    -1.440662066820254
   2   7
     0.003826045922627    -0.004325101975561     0.011589283295130
    -0.004389857051701     0.019638813922519     0.004682320552309
     0.010896598654791     0.005502736537189     0.015028249273884
   2   8
    -0.010374933162112    -0.001169534100488     0.013082306209650
    -0.001109901953199    -0.021122155396900    -0.006653700150987
     0.012367674767999    -0.005731110808255    -0.015228075828306
   2   9
     0.019705143249936     0.013010601534111    -0.003762396875868
     0.012913132848225     0.010948881028289    -0.016537775723371
    -0.004480208212889    -0.015734306570881     0.011522417918428
   2  10
    -0.017698235019733     0.018138046913942     0.011987065673180
     0.018072470565729    -0.016259164348983    -0.018710742213645
     0.011257635476889    -0.017934090668310    -0.011195140268906
   2  11
     0.006018695870624    -0.004295679487709    -0.007611031928571
    -0.004359021766572     0.009339535270604     0.001577761209018
    -0.008323034259305     0.002397592791897    -0.012744031597185
   2  12
    -0.012584634654482     0.013538306662619     0.010679095240260
     0.013600418057743    -0.019216170161053    -0.005108643503042
     0.009962637888900    -0.004178733384533    -0.012753234382778
   2  13
    -0.000035582991750    -0.005474916935357    -0.004028911480523
    -0.007360287788621     0.004668286128417    -0.000478309381664
    -0.007186697703160    -0.000670375497826    -0.005392128997226
   2  14
    -0.003588437416920     0.022606040896340     0.006689133464112
     0.010496966455452    -0.018070750347994    -0.011125727144768
     0.003936271252971    -0.023990829452845     0.001949483524713
   2  15
    -0.014897045891244     0.005401052850053     0.006010097828946
     0.019583084414968    -0.006779413265603     0.001587595058668
     0.020586684692210     0.006271381661358    -0.004597925532209
   2  16
    -0.006629331280294     0.002774093325436     0.024656782947382
     0.001213909682191    -0.009656769806074    -0.025050719773611
     0.009309474819373    -0.013642554826565    -0.022882340564376
   2  17
     0.009522768367247     0.003668722323185    -0.003623599147552
    -0.003953175792480     0.003815215206505     0.009486601749275
    -0.002114481245648     0.003325880873307     0.012276597736268
   2  18
     0.014403360518918    -0.009007562616322    -0.006834051626244
    -0.000992182610992     0.021325668570567     0.000216836334131
    -0.006419855064483     0.008110511428159     0.006113154912826
   2  19
     0.024525288187831    -0.008279617863375     0.007727418767860
     0.017580939270980    -0.079702277751258    -0.002925186084257
     0.006788227610991     0.015009317499869     0.017048581232789
   2  20
    -0.893892094523112     1.006032464564992    -0.012820128892775
     1.005202928918784    -0.894087242511699     0.005585233887717
    -0.014287567451254     0.005639374035922     0.088874011593471
   2  21
    -0.047194733780081     0.013106842140048    -0.006100919693055
    -0.010030941893587     0.053270639279195     0.005614639562922
    -0.005121627692403    -0.009762091614003    -0.040844225471687
   2  22
    -0.888888701302343    -0.006392319477014     1.014412756922904
    -0.004609216907552     0.110287051448992     0.006963335730600
     1.013537791400743     0.004409327625329    -0.901517577686253
   2  23
    -0.014416270709714    -0.008426231355233     0.013694943511660
    -0.010331653207908    -0.027271607294315    -0.006719824246059
     0.013805862141759     0.001164183160208    -0.011908681309619
   2  24
     0.094861649858112     0.000555746534294    -0.012635715415021
     0.000398990043583    -0.887557899103869    -1.013074710848046
    -0.014558776645963    -1.014206737825407    -0.890744501698387
   2  25
    -0.014143677681291    -0.010238838094706     0.012002518463814
    -0.012890253897324    -0.030345066844358    -0.008188408778531
     0.009122824928451     0.004302880164398    -0.010007667657378
   2  26
    -0.881139018948429    -0.000858758738708     0.998360115374098
    -0.004287433645179     0.099896464673649     0.005382823119857
     0.995916287531984    -0.002981358944964    -0.891195930914940
   2  27
     0.082950260945286     0.001293635362794    -0.012844923335515
     0.006326616082182    -0.872270570661823    -0.988376704958016
    -0.008435193522165    -0.991164023186831    -0.878138880842515
   2  28
    -0.880551650734876     0.983258912336705    -0.007745323023264
     0.981453536169246    -0.879552426969035    -0.002017749693637
    -0.013179011158238     0.003883753765034     0.077665539769678
   2  29
     0.020660454446574    -0.007656380456251     0.004882494359470
     0.015497974442418    -0.067180133438311     0.002773421373015
     0.006064556094986     0.014308648411757     0.009412512546095
   2  30
    -0.042152709684565     0.011785950879515    -0.005030917467993
    -0.009989405443459     0.041232576460858     0.007460218204600
    -0.003368277485786    -0.008421499720039    -0.034876886999064
   3   1
    -0.720349486137453    -0.779485867397094    -0.021758922621146
    -0.760641155282721    -0.760868989747942     0.056684795687575
    -0.032399683252171     0.064788426523651    -0.113967112759171
   3   2
    -0.720492547035690    -0.760611331812268    -0.031806620386055
    -0.779591742576456    -0.760821298036160     0.063883209571253
    -0.022332390453388     0.057620014196161    -0.113985343768898
   3   3
     6.582311850668645    -0.455004542386753    -0.576379684366293
    -0.453972915752853     6.700200835389662     0.486248286133456
    -0.556616373168290     0.462714474657941     6.642632015803978
   3   4
    -1.455339583358220     0.031148063820598    -1.398111573303884
     0.030991472903098    -0.140932258299935    -0.033724977948795
    -1.398445843455174    -0.032892963827659    -1.440662066820254
   3   5
    -0.117222363225424    -0.028893716030212    -0.017515182067357
    -0.036046277694724    -0.791508741466616     0.739554377557341
    -0.008030329595374     0.741720755327105    -0.734940956825674
   3   6
    -0.117193397210770    -0.036197865936873    -0.007164667262548
    -0.028779346184404    -0.791419529228898     0.740991338896674
    -0.018254260578615     0.740141909335249    -0.734940711819964
   3   7
     0.019705143249936     0.013010601534111    -0.003762396875868
     0.012913132848225     0.010948881028289    -0.016537775723371
    -0.004480208212889    -0.015734306570881     0.011522417918428
   3   8
     0.003826045922627    -0.004325101975561     0.011589283295130
    -0.004389857051701     0.019638813922519     0.004682320552309
     0.010896598654791     0.005502736537189     0.015028249273884
   3   9
    -0.010374933162112    -0.001169534100488     0.013082306209650
    -0.001109901953199    -0.021122155396900    -0.006653700150987
     0.012367674767999    -0.005731110808255    -0.015228075828306
   3  10
    -0.012584634654482     0.013538306662619     0.010679095240260
     0.013600418057743    -0.019216170161053    -0.005108643503042
     0.009962637888900    -0.004178733384533    -0.012753234382778
   3  11
    -0.017698235019733     0.018138046913942     0.011987065673180
     0.018072470565729    -0.016259164348983    -0.018710742213645
     0.011257635476889    -0.017934090668310    -0.011195140268906
   3  12
     0.006018695870624    -0.004295679487709    -0.007611031928571
    -0.004359021766572     0.009339535270604     0.001577761209018
    -0.008323034259305     0.002397592791897    -0.012744031597185
   3  13
    -0.014897045891244     0.005401052850053     0.006010097828946
     0.019583084414968    -0.006779413265603     0.001587595058668
     0.020586684692210     0.006271381661358    -0.004597925532209
   3  14
    -0.000035582991750    -0.005474916935357    -0.004028911480523
    -0.007360287788621     0.004668286128417    -0.000478309381664
    -0.007186697703160    -0.000670375497826    -0.005392128997226
   3  15
    -0.003588437416920     0.022606040896340     0.006689133464112
     0.010496966455452    -0.018070750347994    -0.011125727144768
     0.003936271252971    -0.023990829452845     0.001949483524713
   3  16
     0.014403360518918    -0.009007562616322    -0.006834051626244
    -0.000992182610992     0.021325668570567     0.000216836334131
    -0.006419855064483     0.008110511428159     0.006113154912826
   3  17
    -0.006629331280294     0.002774093325436     0.024656782947382
     0.001213909682191    -0.009656769806074    -0.025050719773611
     0.009309474819373    -0.013642554826565    -0.022882340564376
   3  18
     0.009522768367247     0.003668722323185    -0.003623599147552
    -0.003953175792480     0.003815215206505     0.009486601749275
    -0.002114481245648     0.003325880873307     0.012276597736268
   3  19
    -0.047194733780081     0.013106842140048    -0.006100919693055
    -0.010030941893587     0.053270639279195     0.005614639562922
    -0.005121627692403    -0.009762091614003    -0.040844225471687
   3  20
     0.024525288187831    -0.008279617863375     0.007727418767860
     0.017580939270980    -0.079702277751258    -0.002925186084257
     0.006788227610991     0.015009317499869     0.017048581232789
   3  21
    -0.893892094523112     1.006032464564992    -0.012820128892775
     1.005202928918784    -0.894087242511699     0.005585233887717
    -0.014287567451254     0.005639374035922     0.088874011593471
   3  22
     0.094861649858112     0.000555746534294    -0.012635715415021
     0.000398990043583    -0.887557899103869    -1.013074710848046
    -0.014558776645963    -1.014206737825407    -0.890744501698387
   3  23
    -0.888888701302343    -0.006392319477014     1.014412756922904
    -0.004609216907552     0.110287051448992     0.006963335730600
     1.013537791400743     0.004409327625329    -0.901517577686253
   3  24
    -0.014416270709714    -0.008426231355233     0.013694943511660
    -0.010331653207908    -0.027271607294315    -0.006719824246059
     0.013805862141759     0.001164183160208    -0.011908681309619
   3  25
     0.082950260945286     0.001293635362794    -0.012844923335515
     0.006326616082182    -0.872270570661823    -0.988376704958016
    -0.008435193522165    -0.991164023186831    -0.878138880842515
   3  26
    -0.014143677681291    -0.010238838094706     0.012002518463814
    -0.012890253897324    -0.030345066844358    -0.008188408778531
     0.009122824928451     0.004302880164398    -0.010007667657378
   3  27
    -0.881139018948429    -0.000858758738708     0.998360115374098
    -0.004287433645179     0.099896464673649     0.005382823119857
     0.995916287531984    -0.002981358944964    -0.891195930914940
   3  28
    -0.042152709684565     0.011785950879515    -0.005030917467993
    -0.009989405443459     0.041232576460858     0.007460218204600
    -0.003368277485786    -0.008421499720039    -0.034876886999064
   3  29
    -0.880551650734876     0.983258912336705    -0.007745323023264
     0.981453536169246    -0.879552426969035    -0.002017749693637
    -0.013179011158238     0.003883753765034     0.077665539769678
   3  30
     0.020660454446574    -0.007656380456251     0.004882494359470
     0.015497974442418    -0.067180133438311     0.002773421373015
     0.006064556094986     0.014308648411757     0.009412512546095
   4   1
    -0.117222363225424    -0.028893716030212    -0.017515182067357
    -0.036046277694724    -0.791508741466616     0.739554377557341
    -0.008030329595374     0.741720755327105    -0.734940956825674
   4   2
    -0.117193397210770    -0.036197865936873    -0.007164667262548
    -0.028779346184404    -0.791419529228898     0.740991338896674
    -0.018254260578615     0.740141909335249    -0.734940711819964
   4   3
    -1.455339583358220     0.031148063820598    -1.398111573303884
     0.030991472903098    -0.140932258299935    -0.033724977948795
    -1.398445843455174    -0.032892963827659    -1.440662066820254
   4   4
     6.582311850668645    -0.455004542386753    -0.576379684366293
    -0.453972915752853     6.700200835389662     0.486248286133456
    -0.556616373168290     0.462714474657941     6.642632015803978
   4   5
    -0.720349486137453    -0.779485867397094    -0.021758922621146
    -0.760641155282721    -0.760868989747942     0.056684795687575
    -0.032399683252171     0.064788426523651    -0.113967112759171
   4   6
    -0.720492547035690    -0.760611331812268    -0.031806620386055
    -0.779591742576456    -0.760821298036160     0.063883209571253
    -0.022332390453388     0.057620014196161    -0.113985343768898
   4   7
    -0.017698235019733     0.018138046913942     0.011987065673180
     0.018072470565729    -0.016259164348983    -0.018710742213645
     0.011257635476889    -0.017934090668310    -0.011195140268906
   4   8
     0.006018695870624    -0.004295679487709    -0.007611031928571
    -0.004359021766572     0.009339535270604     0.001577761209018
    -0.008323034259305     0.002397592791897    -0.012744031597185
   4   9
    -0.012584634654482     0.013538306662619     0.010679095240260
     0.013600418057743    -0.019216170161053    -0.005108643503042
     0.009962637888900    -0.004178733384533    -0.012753234382778
   4  10
    -0.010374933162112    -0.001169534100488     0.013082306209650
    -0.001109901953199    -0.021122155396900    -0.006653700150987
     0.012367674767999    -0.005731110808255    -0.015228075828306
   4  11
     0.019705143249936     0.013010601534111    -0.003762396875868
     0.012913132848225     0.010948881028289    -0.016537775723371
    -0.004480208212889    -0.015734306570881     0.011522417918428
   4  12
     0.003826045922627    -0.004325101975561     0.011589283295130
    -0.004389857051701     0.019638813922519     0.004682320552309
     0.010896598654791     0.005502736537189     0.015028249273884
   4  13
    -0.006629331280294     0.002774093325436     0.024656782947382
     0.001213909682191    -0.009656769806074    -0.025050719773611
     0.009309474819373    -0.013642554826565    -0.022882340564376
   4  14
     0.009522768367247     0.003668722323185    -0.003623599147552
    -0.003953175792480     0.003815215206505     0.009486601749275
    -0.002114481245648     0.003325880873307     0.012276597736268
   4  15
     0.014403360518918    -0.009007562616322    -0.006834051626244
    -0.000992182610992     0.021325668570567     0.000216836334131
    -0.006419855064483     0.008110511428159     0.006113154912826
   4  16
    -0.003588437416920     0.022606040896340     0.006689133464112
     0.010496966455452    -0.018070750347994    -0.011125727144768
     0.003936271252971    -0.023990829452845     0.001949483524713
   4  17
    -0.014897045891244     0.005401052850053     0.006010097828946
     0.019583084414968    -0.006779413265603     0.001587595058668
     0.020586684692210     0.006271381661358    -0.004597925532209
   4  18
    -0.000035582991750    -0.005474916935357    -0.004028911480523
    -0.007360287788621     0.004668286128417    -0.000478309381664
    -0.007186697703160    -0.000670375497826    -0.005392128997226
   4  19
    -0.888888701302343    -0.006392319477014     1.014412756922904
    -0.004609216907552     0.110287051448992     0.006963335730600
     1.013537791400743     0.004409327625329    -0.901517577686253
   4  20
    -0.014416270709714    -0.008426231355233     0.013694943511660
    -0.010331653207908    -0.027271607294315    -0.006719824246059
     0.013805862141759     0.001164183160208    -0.011908681309619
   4  21
     0.094861649858112     0.000555746534294    -0.012635715415021
     0.000398990043583    -0.887557899103869    -1.013074710848046
    -0.014558776645963    -1.014206737825407    -0.890744501698387
   4  22
    -0.893892094523112     1.006032464564992    -0.012820128892775
     1.005202928918784    -0.894087242511699     0.005585233887717
    -0.014287567451254     0.005639374035922     0.088874011593471
   4  23
    -0.047194733780081     0.013106842140048    -0.006100919693055
    -0.010030941893587     0.053270639279195     0.005614639562922
    -0.005121627692403    -0.009762091614003    -0.040844225471687
   4  24
     0.024525288187831    -0.008279617863375     0.007727418767860
     0.017580939270980    -0.079702277751258    -0.002925186084257
     0.006788227610991     0.015009317499869     0.017048581232789
   4  25
    -0.880551650734876     0.983258912336705    -0.007745323023264
     0.981453536169246    -0.879552426969035    -0.002017749693637
    -0.013179011158238     0.003883753765034     0.077665539769678
   4  26
     0.020660454446574    -0.007656380456251     0.004882494359470
     0.015497974442418    -0.067180133438311     0.002773421373015
     0.006064556094986     0.014308648411757     0.009412512546095
   4  27
    -0.042152709684565     0.011785950879515    -0.005030917467993
    -0.009989405443459     0.041232576460858     0.007460218204600
    -0.003368277485786    -0.008421499720039    -0.034876886999064
   4  28
    -0.881139018948429    -0.000858758738708     0.998360115374098
    -0.004287433645179     0.099896464673649     0.005382823119857
     0.995916287531984    -0.002981358944964    -0.891195930914940
   4  29
     0.082950260945286     0.001293635362794    -0.012844923335515
     0.006326616082182    -0.872270570661823    -0.988376704958016
    -0.008435193522165    -0.991164023186831    -0.878138880842515
   4  30
    -0.014143677681291    -0.010238838094706     0.012002518463814
    -0.012890253897324    -0.030345066844358    -0.008188408778531
     0.009122824928451     0.004302880164398    -0.010007667657378
   5   1
    -1.455339583358220     0.031148063820598    -1.398111573303884
     0.030991472903098    -0.140932258299935    -0.033724977948795
    -1.398445843455174    -0.032892963827659    -1.440662066820254
   5   2
    -0.117222363225424    -0.028893716030212    -0.017515182067357
    -0.036046277694724    -0.791508741466616     0.739554377557341
    -0.008030329595374     0.741720755327105    -0.734940956825674
   5   3
    -0.117193397210770    -0.036197865936873    -0.007164667262548
    -0.028779346184404    -0.791419529228898     0.740991338896674
    -0.018254260578615     0.740141909335249    -0.734940711819964
   5   4
    -0.720492547035690    -0.760611331812268    -0.031806620386055
    -0.779591742576456    -0.760821298036160     0.063883209571253
    -0.022332390453388     0.057620014196161    -0.113985343768898
   5   5
     6.582311850668645    -0.455004542386753    -0.576379684366293
    -0.453972915752853     6.700200835389662     0.486248286133456
    -0.556616373168290     0.462714474657941     6.642632015803978
   5   6
    -0.720349486137453    -0.779485867397094    -0.021758922621146
    -0.760641155282721    -0.760868989747942     0.056684795687575
    -0.032399683252171     0.064788426523651    -0.113967112759171
   5   7
    -0.012584634654482     0.013538306662619     0.010679095240260
     0.013600418057743    -0.019216170161053    -0.005108643503042
     0.009962637888900    -0.004178733384533    -0.012753234382778
   5   8
    -0.017698235019733     0.018138046913942     0.011987065673180
     0.018072470565729    -0.016259164348983    -0.018710742213645
     0.011257635476889    -0.017934090668310    -0.011195140268906
   5   9
     0.006018695870624    -0.004295679487709    -0.007611031928571
    -0.004359021766572     0.009339535270604     0.001577761209018
    -0.008323034259305     0.002397592791897    -0.012744031597185
   5  10
     0.003826045922627    -0.004325101975561     0.011589283295130
    -0.004389857051701     0.019638813922519     0.004682320552309
     0.010896598654791     0.005502736537189     0.015028249273884
   5  11
    -0.010374933162112    -0.001169534100488     0.013082306209650
    -0.001109901953199    -0.021122155396900    -0.006653700150987
     0.012367674767999    -0.005731110808255    -0.015228075828306
   5  12
     0.019705143249936     0.013010601534111    -0.003762396875868
     0.012913132848225     0.010948881028289    -0.016537775723371
    -0.004480208212889    -0.015734306570881     0.011522417918428
   5  13
     0.014403360518918    -0.009007562616322    -0.006834051626244
    -0.000992182610992     0.021325668570567     0.000216836334131
    -0.006419855064483     0.008110511428159     0.006113154912826
   5  14
    -0.006629331280294     0.002774093325436     0.024656782947382
     0.001213909682191    -0.009656769806074    -0.025050719773611
     0.009309474819373    -0.013642554826565    -0.022882340564376
   5  15
     0.009522768367247     0.003668722323185    -0.003623599147552
    -0.003953175792480     0.003815215206505     0.009486601749275
    -0.002114481245648     0.003325880873307     0.012276597736268
   5  16
    -0.000035582991750    -0.005474916935357    -0.004028911480523
    -0.007360287788621     0.004668286128417    -0.000478309381664
    -0.007186697703160    -0.000670375497826    -0.005392128997226
   5  17
    -0.003588437416920     0.022606040896340     0.006689133464112
     0.010496966455452    -0.018070750347994    -0.011125727144768
     0.003936271252971    -0.023990829452845     0.001949483524713
   5  18
    -0.014897045891244     0.005401052850053     0.006010097828946
     0.019583084414968    -0.006779413265603     0.001587595058668
     0.020586684692210     0.006271381661358    -0.004597925532209
   5  19
     0.094861649858112     0.000555746534294    -0.012635715415021
     0.000398990043583    -0.887557899103869    -1.013074710848046
    -0.014558776645963    -1.014206737825407    -0.890744501698387
   5  20
    -0.888888701302343    -0.006392319477014     1.014412756922904
    -0.004609216907552     0.110287051448992     0.006963335730600
     1.013537791400743     0.004409327625329    -0.901517577686253
   5  21
    -0.014416270709714    -0.008426231355233     0.013694943511660
    -0.010331653207908    -0.027271607294315    -0.006719824246059
     0.013805862141759     0.001164183160208    -0.011908681309619
   5  22
     0.024525288187831    -0.008279617863375     0.007727418767860
     0.017580939270980    -0.079702277751258    -0.002925186084257
     0.006788227610991     0.015009317499869     0.017048581232789
   5  23
    -0.893892094523112     1.006032464564992    -0.012820128892775
     1.005202928918784    -0.894087242511699     0.005585233887717