30
Lattice="-4.048074851480761 -3.3590343091e-05 -4.046527269402198 -2.020988709592419 -6.069153401821584 4.0434178516309 -6.080567831317221 6.0848248247527685 8.101597879851955" Properties=Z:I:1:pos:R:3:vasp_force:R:3 uuid=169afd86-a926-403c-be12-fba13ccb6686 vasp_virial="0.07576721637567259 0.30261529981361535 0.04513910590588063 0.30261529981361535 -0.10283825346196603 -0.3073187138770362 0.04513910590588063 -0.3073187138770362 -0.0836207373481479" vasp_energy=-113.09242078 pbc="T T T"
      46      -6.08831431      -4.03337888       2.02513321       0.04284200       0.00130200       0.04209500 
      46      -4.05822070      -2.01031649       2.03323940      -0.00560100      -0.00512000      -0.00104100 
      46      -2.03519952       0.01274584       2.03427587      -0.00545800      -0.00410600      -0.00158700 
      46      -4.05923694       0.01272904       0.01101223      -0.00112500       0.00583900      -0.00576600 
      46      -4.05720447      -4.03336203       4.05546656      -0.01992000       0.00112500      -0.02063300 
      46      -6.08225813      -2.01033329       0.00997576      -0.00120000       0.00497700      -0.00543700 
      46      -8.08829560      -2.02328295       6.06208755      -0.00023900      -0.00122000       0.00060800 
      46      -6.06527441      -0.00022061       6.06312403       0.00026200      -0.00098300       0.00069100 
      46      -8.09032807       2.02280813       2.01763323       0.00044000       0.00011000       0.00031900 
      46      -6.06629065       2.02282492       4.04089686       0.00031900       0.00008900      -0.00001500 
      46      -6.06425817      -2.02326615       8.08535119      -0.00027000      -0.00110500       0.00060900 
      46      -8.08931184      -0.00023741       4.03986039       0.00011100      -0.00096800       0.00064000 
      47      -8.08012597       4.03620027       4.03100162       0.00005900      -0.00212400      -0.00055900 
      47      -8.07809349      -0.00989080       8.07545595      -0.00025400      -0.00147300      -0.00063800 
      47      -6.05507230       2.01317153       8.07649242      -0.00017700      -0.00134900      -0.00152200 
      47      -8.07910973       2.01315473       6.05322879      -0.00007200      -0.00125600      -0.00139400 
      47      -6.05608854       4.03621706       6.05426526       0.00011400      -0.00212300      -0.00062500 
      47     -10.10213092      -0.00990760       6.05219231      -0.00027700      -0.00163500      -0.00063500 
      47      -4.06743913      -6.04672933       2.04204629      -0.00598900       0.00857000       0.00122500 
      47      -2.04441794      -4.02366700       2.04308276      -0.00041100       0.00210400       0.00031900 
      47      -4.06947161      -2.00063826      -2.00240803       0.00036000       0.00132300       0.00166800 
      47      -2.04543418      -2.00062146       0.02085560       0.00013400       0.00121900       0.00150700 
      47      -2.04340171      -6.04671253       4.06530993       0.00096900      -0.00575100      -0.00573300 
      47      -4.06845537      -4.02368379       0.01981913       0.00081700       0.00206800       0.00147200 
      47      -6.07526118       2.02926271       0.00326548       0.00126300       0.00094400       0.00100300 
      47      -6.07322871      -2.01682836       4.04771980       0.00001200      -0.00776000      -0.00664600 
      47      -4.05020752       0.00623397       4.04875628      -0.00008800       0.00000100      -0.00005300 
      47      -6.07424495       0.00621717       2.02549264       0.00013600       0.00008600       0.00003500 
      47      -4.05122376       2.02927950       2.02652911       0.00011200       0.00099600      -0.00002000 
      47      -4.04919128      -2.01681157       6.07098344      -0.00687000       0.00622000       0.00011400 
30
Lattice="-4.048074851480761 -3.3590343091e-05 -4.046527269402198 -2.020988709592419 -6.069153401821584 4.0434178516309 -6.080567831317221 6.0848248247527685 8.101597879851955" Properties=Z:I:1:pos:R:3:vasp_force:R:3 uuid=ff2459ad-08a3-4bfe-af62-951be7684355 vasp_virial="0.07561188566023595 0.303258368975523 0.043710063323863756 0.303258368975523 -0.10378577082612939 -0.30779713248058094 0.043710063323863756 -0.30779713248058094 -0.0844874827402842" vasp_energy=-113.09239327 pbc="T T T"
      46      -6.08124189      -4.03337882       2.03220292       0.00037300       0.00129400      -0.00063800 
      46      -4.05822070      -2.01031649       2.03323940      -0.00023300      -0.00024000      -0.00007200 
      46      -2.03519952       0.01274584       2.03427587      -0.00031600       0.00074200      -0.00038300 
      46      -4.05923694       0.01272904       0.01101223      -0.00017700       0.00093600      -0.00052800 
      46      -4.05720447      -4.03336203       4.05546656       0.00024900       0.00124700      -0.00063100 
      46      -6.08225813      -2.01033329       0.00997576      -0.00034300      -0.00017300      -0.00014000 
      46      -8.08562501      -2.01526300       6.05674447      -0.01754800      -0.05151000       0.03393500 
      46      -6.06527441      -0.00022061       6.06312403       0.00840200       0.00763800      -0.00040200 
      46      -8.09032807       2.02280813       2.01763323       0.00802300       0.00849100      -0.00090400 
      46      -6.06629065       2.02282492       4.04089686       0.00091600       0.01025100      -0.00942600 
      46      -6.06425817      -2.02326615       8.08535119      -0.00407300      -0.00028700      -0.00308700 
      46      -8.08931184      -0.00023741       4.03986039       0.00060400       0.00969700      -0.00949700 
      47      -8.08012597       4.03620027       4.03100162       0.00778900      -0.00291400      -0.00812200 
      47      -8.07809349      -0.00989080       8.07545595      -0.00062400       0.00014200       0.00274400 
      47      -6.05507230       2.01317153       8.07649242       0.00008000      -0.00104600      -0.00151500 
      47      -8.07910973       2.01315473       6.05322879      -0.00028700      -0.00054900      -0.00137100 
      47      -6.05608854       4.03621706       6.05426526       0.00024700      -0.00261300      -0.00088000 
      47     -10.10213092      -0.00990760       6.05219231      -0.00608300       0.00298900      -0.00018100 
      47      -4.06743913      -6.04672933       2.04204629       0.00044700       0.00151500       0.00071200 
      47      -2.04441794      -4.02366700       2.04308276      -0.00009800       0.00199400       0.00069000 
      47      -4.06947161      -2.00063826      -2.00240803       0.00014400       0.00126700       0.00147800 
      47      -2.04543418      -2.00062146       0.02085560       0.00017100       0.00126300       0.00146600 
      47      -2.04340171      -6.04671253       4.06530993       0.00037900       0.00159000       0.00064500 
      47      -4.06845537      -4.02368379       0.01981913      -0.00008400       0.00205300       0.00072000 
      47      -6.07526118       2.02926271       0.00326548       0.00013600       0.00269400       0.00351100 
      47      -6.07322871      -2.01682836       4.04771980       0.00733600      -0.00167900      -0.00798300 
      47      -4.05020752       0.00623397       4.04875628       0.00015100       0.00034800      -0.00010200 
      47      -6.07424495       0.00621717       2.02549264      -0.00018600       0.00068800      -0.00006900 
      47      -4.05122376       2.02927950       2.02652911      -0.00509100       0.00541200       0.00068200 
      47      -4.04919128      -2.01681157       6.07098344      -0.00030300      -0.00124200      -0.00065300 
30
Lattice="-4.048074851480761 -3.3590343091e-05 -4.046527269402198 -2.020988709592419 -6.069153401821584 4.0434178516309 -6.080567831317221 6.0848248247527685 8.101597879851955" Properties=Z:I:1:pos:R:3:vasp_force:R:3 uuid=e7ac16fc-0d64-4dcb-b51d-ee69130dd13c vasp_virial="0.07642892522343256 0.3031527440890261 0.04411081656969023 0.3031527440890261 -0.10210198587079647 -0.307296967576875 0.04411081656969023 -0.307296967576875 -0.08307086661550228" vasp_energy=-113.0923428 pbc="T T T"
      46      -6.08124189      -4.03337882       2.03220292       0.00013500       0.00127500      -0.00036700 
      46      -4.05822070      -2.01031649       2.03323940      -0.00035200      -0.00030300      -0.00014800 
      46      -2.03519952       0.01274584       2.03427587      -0.00007600       0.00104300      -0.00059800 
      46      -4.05923694       0.01272904       0.01101223      -0.00040400       0.00122900      -0.00034800 
      46      -4.05720447      -4.03336203       4.05546656       0.00006500       0.00133000      -0.00040400 
      46      -6.08225813      -2.01033329       0.00997576      -0.00021100      -0.00023000      -0.00004000 
      46      -8.09344134      -2.01813360       6.06894361       0.03951500      -0.04092900      -0.05030700 
      46      -6.06527441      -0.00022061       6.06312403       0.00061500      -0.00137600       0.00091300 
      46      -8.09032807       2.02280813       2.01763323       0.00078500      -0.00042900       0.00049600 
      46      -6.06629065       2.02282492       4.04089686      -0.00001900      -0.00106200       0.00125100 
      46      -6.06425817      -2.02326615       8.08535119       0.00169400      -0.00006500       0.00347100 
      46      -8.08931184      -0.00023741       4.03986039      -0.00016600      -0.00215800       0.00181800 
      47      -8.08012597       4.03620027       4.03100162      -0.01168300      -0.00278500       0.01097200 
      47      -8.07809349      -0.00989080       8.07545595       0.00033200       0.01021100       0.01083600 
      47      -6.05507230       2.01317153       8.07649242      -0.00023300      -0.00122000      -0.00128200 
      47      -8.07910973       2.01315473       6.05322879      -0.00012800      -0.00105000      -0.00152700 
      47      -6.05608854       4.03621706       6.05426526      -0.00008900      -0.00225900      -0.00041500 
      47     -10.10213092      -0.00990760       6.05219231      -0.01013500       0.00834900      -0.00139900 
      47      -4.06743913      -6.04672933       2.04204629       0.00027900       0.00165600       0.00111500 
      47      -2.04441794      -4.02366700       2.04308276       0.00008600       0.00187000       0.00056600 
      47      -4.06947161      -2.00063826      -2.00240803       0.00022800       0.00124600       0.00133200 
      47      -2.04543418      -2.00062146       0.02085560       0.00023300       0.00122200       0.00150000 
      47      -2.04340171      -6.04671253       4.06530993       0.00006400       0.00151700       0.00075700 
      47      -4.06845537      -4.02368379       0.01981913      -0.00013500       0.00245200       0.00072200 
      47      -6.07526118       2.02926271       0.00326548       0.00086400       0.01202100       0.01106500 
      47      -6.07322871      -2.01682836       4.04771980      -0.01158200      -0.00131800       0.01057200 
      47      -4.05020752       0.00623397       4.04875628      -0.00011500       0.00010800       0.00009600 
      47      -6.07424495       0.00621717       2.02549264      -0.00006100       0.00024600      -0.00013100 
      47      -4.05122376       2.02927950       2.02652911      -0.00887800       0.01035400      -0.00027800 
      47      -4.04919128      -2.01681157       6.07098344      -0.00062800      -0.00094400      -0.00023800 
30
Lattice="-4.048074851480761 -3.3590343091e-05 -4.046527269402198 -2.020988709592419 -6.069153401821584 4.0434178516309 -6.080567831317221 6.0848248247527685 8.101597879851955" Properties=Z:I:1:pos:R:3:vasp_force:R:3 uuid=7c6fecb7-677d-4d04-8f5c-49670a26692c vasp_virial="0.07487872468337514 0.30229842515412475 0.04323475133462771 0.30229842515412475 -0.10374538484011588 -0.3060636416963083 0.04323475133462771 -0.3060636416963083 -0.08459310762678111" vasp_energy=-113.09233884 pbc="T T T"
      46      -6.08124189      -4.03337882       2.03220292       0.00040000       0.00099000      -0.00077900 
      46      -4.05822070      -2.01031649       2.03323940      -0.00028600       0.00002000      -0.00001300 
      46      -2.03519952       0.01274584       2.03427587      -0.00020600       0.00080600      -0.00057100 
      46      -4.05923694       0.01272904       0.01101223       0.00011800       0.00062900      -0.00081800 
      46      -4.05720447      -4.03336203       4.05546656       0.00047100       0.00093400      -0.00074100 
      46      -6.08225813      -2.01033329       0.00997576      -0.00043100      -0.00005600      -0.00012000 
      46      -8.08314985      -2.02843229       6.05523149      -0.04053100       0.03909800       0.05172600 
      46      -6.06527441      -0.00022061       6.06312403      -0.00030500      -0.00059300       0.00033500 
      46      -8.09032807       2.02280813       2.01763323      -0.00007900       0.00064500      -0.00025900 
      46      -6.06629065       2.02282492       4.04089686       0.00070600       0.00125400      -0.00103000 
      46      -6.06425817      -2.02326615       8.08535119      -0.00218500      -0.00228800      -0.00224300 
      46      -8.08931184      -0.00023741       4.03986039       0.00049400       0.00021300      -0.00055400 
      47      -8.08012597       4.03620027       4.03100162       0.01131600      -0.00152200      -0.01175900 
      47      -8.07809349      -0.00989080       8.07545595      -0.00084000      -0.01284400      -0.01168200 
      47      -6.05507230       2.01317153       8.07649242      -0.00000200      -0.00139800      -0.00165500 
      47      -8.07910973       2.01315473       6.05322879      -0.00010700      -0.00158000      -0.00140300 
      47      -6.05608854       4.03621706       6.05426526       0.00022300      -0.00197800      -0.00085400 
      47     -10.10213092      -0.00990760       6.05219231       0.00921600      -0.01113000       0.00001000 
      47      -4.06743913      -6.04672933       2.04204629       0.00048800       0.00134000       0.00028900 
      47      -2.04441794      -4.02366700       2.04308276      -0.00016000       0.00229300       0.00072200 
      47      -4.06947161      -2.00063826      -2.00240803       0.00006100       0.00129300       0.00163500 
      47      -2.04543418      -2.00062146       0.02085560       0.00006000       0.00131700       0.00146200 
      47      -2.04340171      -6.04671253       4.06530993       0.00070200       0.00147700       0.00064800 
      47      -4.06845537      -4.02368379       0.01981913       0.00006400       0.00170400       0.00056500 
      47      -6.07526118       2.02926271       0.00326548      -0.00004000      -0.01057200      -0.01102600 
      47      -6.07322871      -2.01682836       4.04771980       0.01110300      -0.00032100      -0.01187000 
      47      -4.05020752       0.00623397       4.04875628       0.00002300      -0.00004000      -0.00024900 
      47      -6.07424495       0.00621717       2.02549264      -0.00003100      -0.00017100      -0.00002400 
      47      -4.05122376       2.02927950       2.02652911       0.01010200      -0.00876100       0.00084700 
      47      -4.04919128      -2.01681157       6.07098344      -0.00034300      -0.00075700      -0.00058800 
30
Lattice="-4.048074851480761 -3.3590343091e-05 -4.046527269402198 -2.020988709592419 -6.069153401821584 4.0434178516309 -6.080567831317221 6.0848248247527685 8.101597879851955" Properties=Z:I:1:pos:R:3:vasp_force:R:3 uuid=59817621-d4da-43c9-9da4-1ec2d8c04c8a vasp_virial="0.07263885576677913 0.3070639715037201 0.044287893585287966 0.3070639715037201 -0.1038727560267739 -0.30327390204706667 0.044287893585287966 -0.30327390204706667 -0.08045509736754966" vasp_energy=-113.09240363 pbc="T T T"
      46      -6.08124189      -4.03337882       2.03220292       0.00029600       0.00114400      -0.00049700 
      46      -4.05822070      -2.01031649       2.03323940      -0.00034700      -0.00018300      -0.00013400 
      46      -2.03519952       0.01274584       2.03427587      -0.00020000       0.00109400      -0.00043800 
      46      -4.05923694       0.01272904       0.01101223      -0.00001000       0.00077700      -0.00064600 
      46      -4.05720447      -4.03336203       4.05546656       0.00032600       0.00114500      -0.00053700 
      46      -6.08225813      -2.01033329       0.00997576      -0.00027500      -0.00009100       0.00002600 
      46      -8.08829560      -2.02328295       6.06208755       0.00062800      -0.00114800       0.00146100 
      46      -6.06527441      -0.00022061       6.06312403       0.00016500      -0.00108200       0.00067000 
      46      -8.09032807       2.02280813       2.01763323       0.00095300      -0.00713400      -0.00630800 
      46      -6.06629065       2.02282492       4.04089686      -0.00600400       0.00717000       0.00065400 
      46      -6.06425817      -2.02326615       8.08535119      -0.00061600      -0.00119200       0.00032500 
      46      -8.08931184      -0.00023741       4.03986039       0.00039900      -0.00085300       0.00082000 
      47      -8.08719839       4.03620021       4.02393191       0.04468400      -0.00198400       0.04419500 
      47      -8.07809349      -0.00989080       8.07545595      -0.00639800      -0.00845600       0.00016400 
      47      -6.05507230       2.01317153       8.07649242      -0.00634100      -0.00807600      -0.00058000 
      47      -8.07910973       2.01315473       6.05322879       0.00068600       0.00532700      -0.00761300 
      47      -6.05608854       4.03621706       6.05426526      -0.02586900      -0.00213000      -0.02654800 
      47     -10.10213092      -0.00990760       6.05219231       0.00055800       0.00552100      -0.00688700 
      47      -4.06743913      -6.04672933       2.04204629       0.00094900      -0.00302400      -0.00368200 
      47      -2.04441794      -4.02366700       2.04308276      -0.00024800       0.00199200       0.00062800 
      47      -4.06947161      -2.00063826      -2.00240803       0.00065700       0.00126300       0.00201600 
      47      -2.04543418      -2.00062146       0.02085560      -0.00001100       0.00129900       0.00131100 
      47      -2.04340171      -6.04671253       4.06530993      -0.00408500       0.00612000       0.00128500 
      47      -4.06845537      -4.02368379       0.01981913       0.00023000       0.00217200       0.00071900 
      47      -6.07526118       2.02926271       0.00326548       0.00053200       0.00090800       0.00027100 
      47      -6.07322871      -2.01682836       4.04771980      -0.00046300      -0.00081400      -0.00032700 
      47      -4.05020752       0.00623397       4.04875628      -0.00018100       0.00003200      -0.00024100 
      47      -6.07424495       0.00621717       2.02549264      -0.00001600       0.00004400      -0.00000500 
      47      -4.05122376       2.02927950       2.02652911       0.00047300       0.00104100       0.00036500 
      47      -4.04919128      -2.01681157       6.07098344      -0.00047400      -0.00087900      -0.00046800 
30
Lattice="-4.048074851480761 -3.3590343091e-05 -4.046527269402198 -2.020988709592419 -6.069153401821584 4.0434178516309 -6.080567831317221 6.0848248247527685 8.101597879851955" Properties=Z:I:1:pos:R:3:vasp_force:R:3 uuid=3470fa0e-e560-427c-adb1-081e2448b42c vasp_virial="0.07791699347731534 0.29929743573188927 0.04456438225876515 0.29929743573188927 -0.10336948450875925 -0.3112982868065223 0.04456438225876515 -0.3112982868065223 -0.08676463102858499" vasp_energy=-113.09239614 pbc="T T T"
      46      -6.08124189      -4.03337882       2.03220292       0.00025000       0.00114000      -0.00061000 
      46      -4.05822070      -2.01031649       2.03323940      -0.00028500      -0.00008500       0.00001500 
      46      -2.03519952       0.01274584       2.03427587      -0.00007100       0.00078300      -0.00068900 
      46      -4.05923694       0.01272904       0.01101223      -0.00026000       0.00110500      -0.00048300 
      46      -4.05720447      -4.03336203       4.05546656       0.00021800       0.00114500      -0.00056700 
      46      -6.08225813      -2.01033329       0.00997576      -0.00035900      -0.00017700      -0.00014300 
      46      -8.08829560      -2.02328295       6.06208755      -0.00114100      -0.00118900      -0.00016300 
      46      -6.06527441      -0.00022061       6.06312403       0.00017800      -0.00085000       0.00061200 
      46      -8.09032807       2.02280813       2.01763323      -0.00020400       0.00717200       0.00646600 
      46      -6.06629065       2.02282492       4.04089686       0.00682100      -0.00713200      -0.00042800 
      46      -6.06425817      -2.02326615       8.08535119       0.00013400      -0.00114200       0.00094200 
      46      -8.08931184      -0.00023741       4.03986039      -0.00005500      -0.00107400       0.00046200 
      47      -8.07305355       4.03620033       4.03807134      -0.04550400      -0.00210600      -0.04629900 
      47      -8.07809349      -0.00989080       8.07545595       0.00593800       0.00550100      -0.00149800 
      47      -6.05507230       2.01317153       8.07649242       0.00601900       0.00532100      -0.00226500 
      47      -8.07910973       2.01315473       6.05322879      -0.00096300      -0.00808800       0.00481400 
      47      -6.05608854       4.03621706       6.05426526       0.02600900      -0.00210200       0.02532500 
      47     -10.10213092      -0.00990760       6.05219231      -0.00106100      -0.00846900       0.00551000 
      47      -4.06743913      -6.04672933       2.04204629      -0.00021400       0.00615400       0.00520300 
      47      -2.04441794      -4.02366700       2.04308276       0.00018900       0.00218300       0.00069600 
      47      -4.06947161      -2.00063826      -2.00240803      -0.00032900       0.00129600       0.00096500 
      47      -2.04543418      -2.00062146       0.02085560       0.00031600       0.00125900       0.00169100 
      47      -2.04340171      -6.04671253       4.06530993       0.00478300      -0.00299000       0.00020000 
      47      -4.06845537      -4.02368379       0.01981913      -0.00029100       0.00199900       0.00060400 
      47      -6.07526118       2.02926271       0.00326548       0.00037000       0.00103900       0.00026400 
      47      -6.07322871      -2.01682836       4.04771980      -0.00048800      -0.00087300      -0.00047000 
      47      -4.05020752       0.00623397       4.04875628       0.00010700       0.00004800       0.00011900 
      47      -6.07424495       0.00621717       2.02549264      -0.00006000       0.00003900      -0.00011500 
      47      -4.05122376       2.02927950       2.02652911       0.00042900       0.00090600       0.00016800 
      47      -4.04919128      -2.01681157       6.07098344      -0.00047700      -0.00080900      -0.00032800 
30
Lattice="-4.048074851480761 -3.3590343091e-05 -4.046527269402198 -2.020988709592419 -6.069153401821584 4.0434178516309 -6.080567831317221 6.0848248247527685 8.101597879851955" Properties=Z:I:1:pos:R:3:vasp_force:R:3 uuid=ed2fbeb8-f8da-4f30-93dc-1b9df2a0c5bf vasp_virial="0.07387218164734587 0.3005866806700132 0.047776621453994375 0.3005866806700132 -0.10033742894343652 -0.3065917661287928 0.047776621453994375 -0.3065917661287928 -0.08633591825397995" vasp_energy=-113.09241011 pbc="T T T"
      46      -6.08124189      -4.03337882       2.03220292       0.00040700       0.00107700      -0.00076700 
      46      -4.05822070      -2.01031649       2.03323940      -0.00034200      -0.00012100      -0.00007400 
      46      -2.03519952       0.01274584       2.03427587      -0.00016900       0.00092100      -0.00045200 
      46      -4.05923694       0.01272904       0.01101223      -0.00026700       0.00099400      -0.00054400 
      46      -4.05720447      -4.03336203       4.05546656       0.00026900       0.00130500      -0.00055600 
      46      -6.08225813      -2.01033329       0.00997576      -0.00024700      -0.00017300      -0.00012200 
      46      -8.08829560      -2.02328295       6.06208755      -0.00798500      -0.00037300       0.00807600 
      46      -6.06527441      -0.00022061       6.06312403      -0.00001000      -0.00118300       0.00072900 
      46      -8.09032807       2.02280813       2.01763323       0.00067400      -0.00159400      -0.00329800 
      46      -6.06629065       2.02282492       4.04089686       0.00614500      -0.00443200      -0.00036400 
      46      -6.06425817      -2.02326615       8.08535119      -0.00023500      -0.00081000       0.00074200 
      46      -8.08931184      -0.00023741       4.03986039       0.00012700      -0.00154200       0.00066900 
      47      -8.08279656       4.02818033       4.03634470       0.01693100       0.04945600      -0.03500700 
      47      -8.07809349      -0.00989080       8.07545595      -0.01002600      -0.01102100      -0.00126600 
      47      -6.05507230       2.01317153       8.07649242      -0.01053700      -0.01096400      -0.00212700 
      47      -8.07910973       2.01315473       6.05322879       0.00005300      -0.01401800       0.01160500 
      47      -6.05608854       4.03621706       6.05426526       0.00600400       0.00041900       0.00321800 
      47     -10.10213092      -0.00990760       6.05219231      -0.00014500      -0.01395000       0.01152800 
      47      -4.06743913      -6.04672933       2.04204629       0.00084500       0.00013500      -0.00137900 
      47      -2.04441794      -4.02366700       2.04308276      -0.00029500       0.00158700       0.00074300 
      47      -4.06947161      -2.00063826      -2.00240803      -0.00515800       0.00233500       0.00655900 
      47      -2.04543418      -2.00062146       0.02085560       0.00007600       0.00156000       0.00166500 
      47      -2.04340171      -6.04671253       4.06530993       0.00411200      -0.00149100       0.00003800 
      47      -4.06845537      -4.02368379       0.01981913      -0.00007200       0.00161900       0.00084000 
      47      -6.07526118       2.02926271       0.00326548       0.00039900       0.00099200       0.00025700 
      47      -6.07322871      -2.01682836       4.04771980      -0.00072500      -0.00081500      -0.00017300 
      47      -4.05020752       0.00623397       4.04875628       0.00018400      -0.00011700      -0.00023800 
      47      -6.07424495       0.00621717       2.02549264       0.00001900       0.00001700      -0.00015300 
      47      -4.05122376       2.02927950       2.02652911       0.00046200       0.00099700       0.00023700 
      47      -4.04919128      -2.01681157       6.07098344      -0.00049500      -0.00081300      -0.00038400 
30
Lattice="-4.048074851480761 -3.3590343091e-05 -4.046527269402198 -2.020988709592419 -6.069153401821584 4.0434178516309 -6.080567831317221 6.0848248247527685 8.101597879851955" Properties=Z:I:1:pos:R:3:vasp_force:R:3 uuid=55e6c894-748b-45e3-b879-4b8557b7afb7 vasp_virial="0.0763357267941706 0.3065265272283094 0.03944778849228302 0.3065265272283094 -0.10745468232474226 -0.3091112303331747 0.03944778849228302 -0.3091112303331747 -0.08124107078765895" vasp_energy=-113.09238386 pbc="T T T"
      46      -6.08124189      -4.03337882       2.03220292       0.00012200       0.00121100      -0.00035400 
      46      -4.05822070      -2.01031649       2.03323940      -0.00030800      -0.00014000      -0.00005800 
      46      -2.03519952       0.01274584       2.03427587      -0.00012100       0.00096200      -0.00069100 
      46      -4.05923694       0.01272904       0.01101223      -0.00002100       0.00089400      -0.00059700 
      46      -4.05720447      -4.03336203       4.05546656       0.00025600       0.00098800      -0.00056000 
      46      -6.08225813      -2.01033329       0.00997576      -0.00040500      -0.00008700      -0.00000700 
      46      -8.08829560      -2.02328295       6.06208755       0.00769900      -0.00201800      -0.00701300 
      46      -6.06527441      -0.00022061       6.06312403       0.00033600      -0.00074500       0.00054100 
      46      -8.09032807       2.02280813       2.01763323       0.00001600       0.00184000       0.00355000 
      46      -6.06629065       2.02282492       4.04089686      -0.00536400       0.00461500       0.00059800 
      46      -6.06425817      -2.02326615       8.08535119      -0.00026800      -0.00152600       0.00051300 
      46      -8.08931184      -0.00023741       4.03986039       0.00019800      -0.00037400       0.00059900 
      47      -8.07745538       4.04422021       4.02565854      -0.01728300      -0.05383600       0.03332400 
      47      -8.07809349      -0.00989080       8.07545595       0.00981100       0.00822400       0.00003300 
      47      -6.05507230       2.01317153       8.07649242       0.00992900       0.00805900      -0.00084700 
      47      -8.07910973       2.01315473       6.05322879      -0.00025400       0.01088700      -0.01394500 
      47      -6.05608854       4.03621706       6.05426526      -0.00588200      -0.00463800      -0.00445600 
      47     -10.10213092      -0.00990760       6.05219231      -0.00046900       0.01138300      -0.01338400 
      47      -4.06743913      -6.04672933       2.04204629      -0.00009100       0.00286500       0.00281500 
      47      -2.04441794      -4.02366700       2.04308276       0.00021400       0.00259300       0.00056900 
      47      -4.06947161      -2.00063826      -2.00240803       0.00530300       0.00028400      -0.00344400 
      47      -2.04543418      -2.00062146       0.02085560       0.00021400       0.00100700       0.00132100 