  30
   1   1
     7.451994335030364     0.108892485515250    -0.220870085491129
     0.141977614878640     7.468392776540083     0.263615377510667
    -0.203652271694788     0.249557989846245     7.372060687037841
   1   2
    -0.976020258313502    -1.051802664745964     0.108458414509866
    -1.171355401062170    -0.997927159503066    -0.023215172987975
    -0.000535239896920    -0.035838542120590     0.166993769648942
   1   3
     0.061055731957628     0.051757846914845    -0.055855081761823
     0.058363219085363     0.082903981828294     0.025934838480485
    -0.058519753789662     0.017992530229877    -0.008748740704188
   1   4
     0.061061710758067     0.059488507256904    -0.057709685676728
     0.050403940182210     0.082912564155039     0.017295536894989
    -0.056595463029863     0.026636427360912    -0.008976256623135
   1   5
    -0.975980008128599    -1.170353491271756    -0.000001543811668
    -1.052995444469435    -0.997880814377242    -0.036667416227661
     0.108156940680382    -0.022505709001934     0.166681043568979
   1   6
     0.113502966459913     0.018349601989541     0.031329345747304
     0.065251768431070    -1.024803937336022    -1.187531330447969
     0.028160201117005    -1.165029993865082    -0.970162444245422
   1   7
    -0.053474004236117     0.013462130405326    -0.036785972862999
     0.002143126674444    -0.037637040099781    -0.012413569501474
    -0.021077854079027    -0.038213671664035    -0.022190127314803
   1   8
    -0.013860854921343     0.050917389308045    -0.034116867166244
     0.043897365231849    -0.039265408802993     0.032586663211792
    -0.014212961007244     0.013394167207656     0.034462213803333
   1   9
    -0.053577017442319    -0.038018060382770     0.050905830505393
    -0.029306995396179    -0.003675261174222    -0.002040155728700
     0.041821763350939     0.019731385398781    -0.005422585552737
   1  10
    -0.979916936069204     0.017004301299625     1.165511359580787
    -0.021917877770721     0.107943941649791    -0.007946926106366
     1.151074711247146    -0.020911420459397    -0.980356643277516
   1  11
    -0.004858377673028     0.043026755282516     0.065989594284453
     0.020348163467057    -0.097658605381519    -0.058358608976579
     0.055591898141094    -0.051666766515724    -0.061029849204248
   1  12
    -0.896997131044155     0.900997250899368     0.039540237259266
     0.879411998213908    -0.877127103819619    -0.045290633937361
    -0.038390481925453     0.049822150001780     0.110899798648460
   1  13
    -0.032004683013083    -0.057919405238524    -0.038141515281085
    -0.026506772751538     0.055210243806854     0.025019382661540
     0.007361278184885    -0.025855431464192     0.022948415758651
   1  14
     0.019098569839406     0.002131848795261     0.020592107340692
     0.009054269464737     0.008552654622205    -0.037147735487789
     0.006614771952155     0.001060465810370    -0.084209189485529
   1  15
     0.045580479678290    -0.014239730188485    -0.014610159429560
    -0.011274437511781     0.042021697874460     0.041178878117847
    -0.027418618733626     0.018640269994560     0.027950462351025
   1  16
     0.089431518734065    -0.018819604103328     0.050220714550480
     0.042544007787866    -1.010635589467272     1.159293057132478
     0.015606073308134     1.174121920686660    -1.041956177582570
   1  17
    -1.070309795806764    -0.019519643949390    -1.184760959156560
    -0.068782639567530     0.079829084701633    -0.028059027393482
    -1.211353399615384    -0.010210972640934    -1.033520086957620
   1  18
    -0.921590951491430    -0.073210566535603    -1.082088660140606
    -0.063819368588385     0.056331385492729    -0.060188408861330
    -0.950172059605895    -0.060611478797772    -0.899148953008498
   1  19
     0.080633307967798     0.034343613221000     0.014492896968591
     0.005610586502517    -0.848605681239259     1.007395342884021
     0.009240098188234     0.910840405443956    -0.870512905931298
   1  20
    -0.003671630606516    -0.072707088574843     0.044921580075370
    -0.078541667052040    -0.101877101103411     0.071026938494328
     0.052954579772039     0.064991579736828    -0.037627237186374
   1  21
    -0.048868098669938    -0.034090607863253    -0.067560795958791
    -0.035226879119777     0.062239004230420    -0.011730689030708
    -0.068097448422795    -0.011030360813183    -0.020294884994385
   1  22
    -1.055436066514044     1.223535580071226     0.045073761647011
     1.222495053337635    -1.094010718727668    -0.081628040505351
     0.044834906091665    -0.081336634209683     0.151616398046129
   1  23
    -0.028669268777854     0.007739030240598     0.000516238251024
     0.006905805689867    -0.103206469281431     0.031279338940126
     0.000396568324128     0.031639437617134    -0.034048386352334
   1  24
     0.008091819621996    -0.017207288262996     0.045488958191475
    -0.018113561261407     0.019878189139506     0.045694133475351
     0.044852836876760     0.046143085772252    -0.026749864902890
   1  25
     0.006313780016769    -0.000078387822476    -0.012556972931898
    -0.000966171271568    -0.003605525090974    -0.002014027644264
    -0.012854349614249    -0.001707666874825    -0.095795112651487
   1  26
     0.000937626089593     0.024039396842395    -0.010783943137445
     0.015460319508411    -0.027180019229449     0.008765227331502
    -0.016054655300073     0.010656274887673     0.007708959649457
   1  27
    -0.036700539393237     0.010950029665647    -0.013241315175511
     0.025527179943949    -0.011807749770152    -0.019942510446104
    -0.012973691946900    -0.008523180720992     0.002317513795168
   1  28
     0.153984964989140     0.016907536679306     0.022702664119106
     0.017152233612260    -0.952835298862251    -1.123776185702761
     0.037434651159617    -1.080721140109181    -0.931618203086152
   1  29
    -0.924683515035610    -0.012897886877427     1.114438090867459
    -0.009876882771162     0.159962307249408    -0.007482352994418
     1.075296784303334    -0.023318319315542    -0.940513099964915
   1  30
    -0.015067851097477    -0.002678729402593     0.008900164415339
    -0.017863848056956     0.003561012234049     0.016347685717435
     0.012511091399515     0.002253293856992     0.009240340744033
   2   1
    -0.975980008128599    -1.170353491271756    -0.000001543811668
    -1.052995444469435    -0.997880814377242    -0.036667416227661
     0.108156940680382    -0.022505709001934     0.166681043568979
   2   2
     7.451994335030364     0.108892485515250    -0.220870085491130
     0.141977614878640     7.468392776540083     0.263615377510667
    -0.203652271694788     0.249557989846245     7.372060687037841
   2   3
    -0.976020258313502    -1.051802664745964     0.108458414509866
    -1.171355401062170    -0.997927159503066    -0.023215172987975
    -0.000535239896920    -0.035838542120590     0.166993769648942
   2   4
     0.061055731957628     0.051757846914845    -0.055855081761823
     0.058363219085363     0.082903981828294     0.025934838480485
    -0.058519753789662     0.017992530229877    -0.008748740704188
   2   5
     0.061061710758067     0.059488507256904    -0.057709685676728
     0.050403940182210     0.082912564155039     0.017295536894989
    -0.056595463029863     0.026636427360912    -0.008976256623135
   2   6
    -0.979916936069204     0.017004301299625     1.165511359580787
    -0.021917877770721     0.107943941649791    -0.007946926106366
     1.151074711247146    -0.020911420459397    -0.980356643277516
   2   7
     0.113502966459913     0.018349601989541     0.031329345747304
     0.065251768431070    -1.024803937336022    -1.187531330447969
     0.028160201117005    -1.165029993865082    -0.970162444245422
   2   8
    -0.053474004236117     0.013462130405326    -0.036785972862999
     0.002143126674444    -0.037637040099781    -0.012413569501474
    -0.021077854079027    -0.038213671664035    -0.022190127314803
   2   9
    -0.013860854921343     0.050917389308045    -0.034116867166244
     0.043897365231849    -0.039265408802993     0.032586663211792
    -0.014212961007244     0.013394167207656     0.034462213803333
   2  10
    -0.053577017442319    -0.038018060382770     0.050905830505393
    -0.029306995396179    -0.003675261174222    -0.002040155728700
     0.041821763350939     0.019731385398781    -0.005422585552737
   2  11
     0.045580479678290    -0.014239730188485    -0.014610159429560
    -0.011274437511781     0.042021697874460     0.041178878117847
    -0.027418618733626     0.018640269994560     0.027950462351025
   2  12
    -0.004858377673028     0.043026755282516     0.065989594284453
     0.020348163467057    -0.097658605381519    -0.058358608976579
     0.055591898141094    -0.051666766515724    -0.061029849204248
   2  13
    -0.896997131044155     0.900997250899368     0.039540237259266
     0.879411998213908    -0.877127103819619    -0.045290633937361
    -0.038390481925453     0.049822150001780     0.110899798648460
   2  14
    -0.032004683013083    -0.057919405238524    -0.038141515281085
    -0.026506772751538     0.055210243806854     0.025019382661540
     0.007361278184885    -0.025855431464192     0.022948415758651
   2  15
     0.019098569839406     0.002131848795261     0.020592107340692
     0.009054269464737     0.008552654622205    -0.037147735487789
     0.006614771952155     0.001060465810370    -0.084209189485529
   2  16
    -0.003671630606516    -0.072707088574843     0.044921580075370
    -0.078541667052040    -0.101877101103411     0.071026938494328
     0.052954579772039     0.064991579736828    -0.037627237186374
   2  17
     0.089431518734065    -0.018819604103328     0.050220714550480
     0.042544007787866    -1.010635589467272     1.159293057132478
     0.015606073308134     1.174121920686660    -1.041956177582570
   2  18
    -1.070309795806764    -0.019519643949390    -1.184760959156560
    -0.068782639567530     0.079829084701633    -0.028059027393482
    -1.211353399615384    -0.010210972640934    -1.033520086957620
   2  19
    -0.921590951491430    -0.073210566535603    -1.082088660140606
    -0.063819368588385     0.056331385492729    -0.060188408861330
    -0.950172059605895    -0.060611478797772    -0.899148953008498
   2  20
     0.080633307967798     0.034343613221000     0.014492896968591
     0.005610586502517    -0.848605681239259     1.007395342884021
     0.009240098188234     0.910840405443956    -0.870512905931298
   2  21
     0.006313780016769    -0.000078387822476    -0.012556972931898
    -0.000966171271568    -0.003605525090974    -0.002014027644264
    -0.012854349614249    -0.001707666874825    -0.095795112651487
   2  22
    -0.048868098669938    -0.034090607863253    -0.067560795958791
    -0.035226879119777     0.062239004230420    -0.011730689030708
    -0.068097448422795    -0.011030360813183    -0.020294884994385
   2  23
    -1.055436066514044     1.223535580071226     0.045073761647011
     1.222495053337635    -1.094010718727668    -0.081628040505351
     0.044834906091665    -0.081336634209683     0.151616398046129
   2  24
    -0.028669268777854     0.007739030240598     0.000516238251024
     0.006905805689867    -0.103206469281431     0.031279338940126
     0.000396568324128     0.031639437617134    -0.034048386352334
   2  25
     0.008091819621996    -0.017207288262996     0.045488958191475
    -0.018113561261407     0.019878189139506     0.045694133475351
     0.044852836876760     0.046143085772252    -0.026749864902890
   2  26
    -0.015067851097477    -0.002678729402593     0.008900164415339
    -0.017863848056956     0.003561012234049     0.016347685717435
     0.012511091399515     0.002253293856992     0.009240340744033
   2  27
     0.000937626089593     0.024039396842395    -0.010783943137445
     0.015460319508411    -0.027180019229449     0.008765227331502
    -0.016054655300073     0.010656274887673     0.007708959649457
   2  28
    -0.036700539393237     0.010950029665647    -0.013241315175511
     0.025527179943949    -0.011807749770152    -0.019942510446104
    -0.012973691946900    -0.008523180720992     0.002317513795168
   2  29
     0.153984964989140     0.016907536679306     0.022702664119106
     0.017152233612260    -0.952835298862251    -1.123776185702761
     0.037434651159617    -1.080721140109181    -0.931618203086152
   2  30
    -0.924683515035610    -0.012897886877427     1.114438090867459
    -0.009876882771162     0.159962307249408    -0.007482352994418
     1.075296784303334    -0.023318319315542    -0.940513099964915
   3   1
     0.061061710758067     0.059488507256904    -0.057709685676728
     0.050403940182210     0.082912564155039     0.017295536894989
    -0.056595463029863     0.026636427360912    -0.008976256623135
   3   2
    -0.975980008128599    -1.170353491271756    -0.000001543811668
    -1.052995444469435    -0.997880814377242    -0.036667416227661
     0.108156940680382    -0.022505709001934     0.166681043568979
   3   3
     7.451994335030364     0.108892485515250    -0.220870085491130
     0.141977614878640     7.468392776540083     0.263615377510667
    -0.203652271694788     0.249557989846245     7.372060687037841
   3   4
    -0.976020258313502    -1.051802664745964     0.108458414509866
    -1.171355401062170    -0.997927159503066    -0.023215172987975
    -0.000535239896920    -0.035838542120590     0.166993769648942
   3   5
     0.061055731957628     0.051757846914845    -0.055855081761823
     0.058363219085363     0.082903981828294     0.025934838480485
    -0.058519753789662     0.017992530229877    -0.008748740704188
   3   6
    -0.053577017442319    -0.038018060382770     0.050905830505393
    -0.029306995396179    -0.003675261174222    -0.002040155728700
     0.041821763350939     0.019731385398781    -0.005422585552737
   3   7
    -0.979916936069204     0.017004301299625     1.165511359580787
    -0.021917877770721     0.107943941649791    -0.007946926106366
     1.151074711247146    -0.020911420459397    -0.980356643277516
   3   8
     0.113502966459913     0.018349601989541     0.031329345747304
     0.065251768431070    -1.024803937336022    -1.187531330447969
     0.028160201117005    -1.165029993865082    -0.970162444245422
   3   9
    -0.053474004236117     0.013462130405326    -0.036785972862999
     0.002143126674444    -0.037637040099781    -0.012413569501474
    -0.021077854079027    -0.038213671664035    -0.022190127314803
   3  10
    -0.013860854921343     0.050917389308045    -0.034116867166244
     0.043897365231849    -0.039265408802993     0.032586663211792
    -0.014212961007244     0.013394167207656     0.034462213803333
   3  11
     0.019098569839406     0.002131848795261     0.020592107340692
     0.009054269464737     0.008552654622205    -0.037147735487789
     0.006614771952155     0.001060465810370    -0.084209189485529
   3  12
     0.045580479678290    -0.014239730188485    -0.014610159429560
    -0.011274437511781     0.042021697874460     0.041178878117847
    -0.027418618733626     0.018640269994560     0.027950462351025
   3  13
    -0.004858377673028     0.043026755282516     0.065989594284453
     0.020348163467057    -0.097658605381519    -0.058358608976579
     0.055591898141094    -0.051666766515724    -0.061029849204248
   3  14
    -0.896997131044155     0.900997250899368     0.039540237259266
     0.879411998213908    -0.877127103819619    -0.045290633937361
    -0.038390481925453     0.049822150001780     0.110899798648460
   3  15
    -0.032004683013083    -0.057919405238524    -0.038141515281085
    -0.026506772751538     0.055210243806854     0.025019382661540
     0.007361278184885    -0.025855431464192     0.022948415758651
   3  16
     0.080633307967798     0.034343613221000     0.014492896968591
     0.005610586502517    -0.848605681239259     1.007395342884021
     0.009240098188234     0.910840405443956    -0.870512905931298
   3  17
    -0.003671630606516    -0.072707088574843     0.044921580075370
    -0.078541667052040    -0.101877101103411     0.071026938494328
     0.052954579772039     0.064991579736828    -0.037627237186374
   3  18
     0.089431518734065    -0.018819604103328     0.050220714550480
     0.042544007787866    -1.010635589467272     1.159293057132478
     0.015606073308134     1.174121920686660    -1.041956177582570
   3  19
    -1.070309795806764    -0.019519643949390    -1.184760959156560
    -0.068782639567530     0.079829084701633    -0.028059027393482
    -1.211353399615384    -0.010210972640934    -1.033520086957620
   3  20
    -0.921590951491430    -0.073210566535603    -1.082088660140606
    -0.063819368588385     0.056331385492729    -0.060188408861330
    -0.950172059605895    -0.060611478797772    -0.899148953008498
   3  21
     0.008091819621996    -0.017207288262996     0.045488958191475
    -0.018113561261407     0.019878189139506     0.045694133475351
     0.044852836876760     0.046143085772252    -0.026749864902890
   3  22
     0.006313780016769    -0.000078387822476    -0.012556972931898
    -0.000966171271568    -0.003605525090974    -0.002014027644264
    -0.012854349614249    -0.001707666874825    -0.095795112651487
   3  23
    -0.048868098669938    -0.034090607863253    -0.067560795958791
    -0.035226879119777     0.062239004230420    -0.011730689030708
    -0.068097448422795    -0.011030360813183    -0.020294884994385
   3  24
    -1.055436066514044     1.223535580071226     0.045073761647011
     1.222495053337635    -1.094010718727668    -0.081628040505351
     0.044834906091665    -0.081336634209683     0.151616398046129
   3  25
    -0.028669268777854     0.007739030240598     0.000516238251024
     0.006905805689867    -0.103206469281431     0.031279338940126
     0.000396568324128     0.031639437617134    -0.034048386352334
   3  26
    -0.924683515035610    -0.012897886877427     1.114438090867459
    -0.009876882771162     0.159962307249408    -0.007482352994418
     1.075296784303334    -0.023318319315542    -0.940513099964915
   3  27
    -0.015067851097477    -0.002678729402593     0.008900164415339
    -0.017863848056956     0.003561012234049     0.016347685717435
     0.012511091399515     0.002253293856992     0.009240340744033
   3  28
     0.000937626089593     0.024039396842395    -0.010783943137445
     0.015460319508411    -0.027180019229449     0.008765227331502
    -0.016054655300073     0.010656274887673     0.007708959649457
   3  29
    -0.036700539393237     0.010950029665647    -0.013241315175511
     0.025527179943949    -0.011807749770152    -0.019942510446104
    -0.012973691946900    -0.008523180720992     0.002317513795168
   3  30
     0.153984964989140     0.016907536679306     0.022702664119106
     0.017152233612260    -0.952835298862251    -1.123776185702761
     0.037434651159617    -1.080721140109181    -0.931618203086152
   4   1
     0.061055731957628     0.051757846914845    -0.055855081761823
     0.058363219085363     0.082903981828294     0.025934838480485
    -0.058519753789662     0.017992530229877    -0.008748740704188
   4   2
     0.061061710758067     0.059488507256904    -0.057709685676728
     0.050403940182210     0.082912564155039     0.017295536894989
    -0.056595463029863     0.026636427360912    -0.008976256623135
   4   3
    -0.975980008128599    -1.170353491271756    -0.000001543811668
    -1.052995444469435    -0.997880814377242    -0.036667416227661
     0.108156940680382    -0.022505709001934     0.166681043568979
   4   4
     7.451994335030364     0.108892485515250    -0.220870085491130
     0.141977614878640     7.468392776540083     0.263615377510667
    -0.203652271694788     0.249557989846245     7.372060687037841
   4   5
    -0.976020258313502    -1.051802664745964     0.108458414509866
    -1.171355401062170    -0.997927159503066    -0.023215172987975
    -0.000535239896920    -0.035838542120590     0.166993769648942
   4   6
    -0.013860854921343     0.050917389308045    -0.034116867166244
     0.043897365231849    -0.039265408802993     0.032586663211792
    -0.014212961007244     0.013394167207656     0.034462213803333
   4   7
    -0.053577017442319    -0.038018060382770     0.050905830505393
    -0.029306995396179    -0.003675261174222    -0.002040155728700
     0.041821763350939     0.019731385398781    -0.005422585552737
   4   8
    -0.979916936069204     0.017004301299625     1.165511359580787
    -0.021917877770721     0.107943941649791    -0.007946926106366
     1.151074711247146    -0.020911420459397    -0.980356643277516
   4   9
     0.113502966459913     0.018349601989541     0.031329345747304
     0.065251768431070    -1.024803937336022    -1.187531330447969
     0.028160201117005    -1.165029993865082    -0.970162444245422
   4  10
    -0.053474004236117     0.013462130405326    -0.036785972862999
     0.002143126674444    -0.037637040099781    -0.012413569501474
    -0.021077854079027    -0.038213671664035    -0.022190127314803
   4  11
    -0.032004683013083    -0.057919405238524    -0.038141515281085
    -0.026506772751538     0.055210243806854     0.025019382661540
     0.007361278184885    -0.025855431464192     0.022948415758651
   4  12
     0.019098569839406     0.002131848795261     0.020592107340692
     0.009054269464737     0.008552654622205    -0.037147735487789
     0.006614771952155     0.001060465810370    -0.084209189485529
   4  13
     0.045580479678290    -0.014239730188485    -0.014610159429560
    -0.011274437511781     0.042021697874460     0.041178878117847
    -0.027418618733626     0.018640269994560     0.027950462351025
   4  14
    -0.004858377673028     0.043026755282516     0.065989594284453
     0.020348163467057    -0.097658605381519    -0.058358608976579
     0.055591898141094    -0.051666766515724    -0.061029849204248
   4  15
    -0.896997131044155     0.900997250899368     0.039540237259266
     0.879411998213908    -0.877127103819619    -0.045290633937361
    -0.038390481925453     0.049822150001780     0.110899798648460
   4  16
    -0.921590951491430    -0.073210566535603    -1.082088660140606
    -0.063819368588385     0.056331385492729    -0.060188408861330
    -0.950172059605895    -0.060611478797772    -0.899148953008498
   4  17
     0.080633307967798     0.034343613221000     0.014492896968591
     0.005610586502517    -0.848605681239259     1.007395342884021
     0.009240098188234     0.910840405443956    -0.870512905931298
   4  18
    -0.003671630606516    -0.072707088574843     0.044921580075370
    -0.078541667052040    -0.101877101103411     0.071026938494328
     0.052954579772039     0.064991579736828    -0.037627237186374
   4  19
     0.089431518734065    -0.018819604103328     0.050220714550480
     0.042544007787866    -1.010635589467272     1.159293057132478
     0.015606073308134     1.174121920686660    -1.041956177582570
   4  20
    -1.070309795806764    -0.019519643949390    -1.184760959156560
    -0.068782639567530     0.079829084701633    -0.028059027393482
    -1.211353399615384    -0.010210972640934    -1.033520086957620
   4  21
    -0.028669268777854     0.007739030240598     0.000516238251024
     0.006905805689867    -0.103206469281431     0.031279338940126
     0.000396568324128     0.031639437617134    -0.034048386352334
   4  22
     0.008091819621996    -0.017207288262996     0.045488958191475
    -0.018113561261407     0.019878189139506     0.045694133475351
     0.044852836876760     0.046143085772252    -0.026749864902890
   4  23
     0.006313780016769    -0.000078387822476    -0.012556972931898
    -0.000966171271568    -0.003605525090974    -0.002014027644264
    -0.012854349614249    -0.001707666874825    -0.095795112651487
   4  24
    -0.048868098669938    -0.034090607863253    -0.067560795958791
    -0.035226879119777     0.062239004230420    -0.011730689030708
    -0.068097448422795    -0.011030360813183    -0.020294884994385
   4  25
    -1.055436066514044     1.223535580071226     0.045073761647011
     1.222495053337635    -1.094010718727668    -0.081628040505351
     0.044834906091665    -0.081336634209683     0.151616398046129
   4  26
     0.153984964989140     0.016907536679306     0.022702664119106
     0.017152233612260    -0.952835298862251    -1.123776185702761
     0.037434651159617    -1.080721140109181    -0.931618203086152
   4  27
    -0.924683515035610    -0.012897886877427     1.114438090867459
    -0.009876882771162     0.159962307249408    -0.007482352994418
     1.075296784303334    -0.023318319315542    -0.940513099964915
   4  28
    -0.015067851097477    -0.002678729402593     0.008900164415339
    -0.017863848056956     0.003561012234049     0.016347685717435
     0.012511091399515     0.002253293856992     0.009240340744033
   4  29
     0.000937626089593     0.024039396842395    -0.010783943137445
     0.015460319508411    -0.027180019229449     0.008765227331502
    -0.016054655300073     0.010656274887673     0.007708959649457
   4  30
    -0.036700539393237     0.010950029665647    -0.013241315175511
     0.025527179943949    -0.011807749770152    -0.019942510446104
    -0.012973691946900    -0.008523180720992     0.002317513795168
   5   1
    -0.976020258313502    -1.051802664745964     0.108458414509866
    -1.171355401062170    -0.997927159503066    -0.023215172987975
    -0.000535239896920    -0.035838542120590     0.166993769648942
   5   2
     0.061055731957628     0.051757846914845    -0.055855081761823
     0.058363219085363     0.082903981828294     0.025934838480485
    -0.058519753789662     0.017992530229877    -0.008748740704188
   5   3
     0.061061710758067     0.059488507256904    -0.057709685676728
     0.050403940182210     0.082912564155039     0.017295536894989
    -0.056595463029863     0.026636427360912    -0.008976256623135
   5   4
    -0.975980008128599    -1.170353491271756    -0.000001543811668
    -1.052995444469435    -0.997880814377242    -0.036667416227661
     0.108156940680382    -0.022505709001934     0.166681043568979
   5   5
     7.451994335030364     0.108892485515250    -0.220870085491130
     0.141977614878640     7.468392776540083     0.263615377510667
    -0.203652271694788     0.249557989846245     7.372060687037841
   5   6
    -0.053474004236117     0.013462130405326    -0.036785972862999
     0.002143126674444    -0.037637040099781    -0.012413569501474
    -0.021077854079027    -0.038213671664035    -0.022190127314803
   5   7
    -0.013860854921343     0.050917389308045    -0.034116867166244
     0.043897365231849    -0.039265408802993     0.032586663211792
    -0.014212961007244     0.013394167207656     0.034462213803333
   5   8
    -0.053577017442319    -0.038018060382770     0.050905830505393
    -0.029306995396179    -0.003675261174222    -0.002040155728700
     0.041821763350939     0.019731385398781    -0.005422585552737
   5   9
    -0.979916936069204     0.017004301299625     1.165511359580787
    -0.021917877770721     0.107943941649791    -0.007946926106366
     1.151074711247146    -0.020911420459397    -0.980356643277516
   5  10
     0.113502966459913     0.018349601989541     0.031329345747304
     0.065251768431070    -1.024803937336022    -1.187531330447969
     0.028160201117005    -1.165029993865082    -0.970162444245422
   5  11
    -0.896997131044155     0.900997250899368     0.039540237259266
     0.879411998213908    -0.877127103819619    -0.045290633937361
    -0.038390481925453     0.049822150001780     0.110899798648460
   5  12
    -0.032004683013083    -0.057919405238524    -0.038141515281085
    -0.026506772751538     0.055210243806854     0.025019382661540
     0.007361278184885    -0.025855431464192     0.022948415758651
   5  13
     0.019098569839406     0.002131848795261     0.020592107340692
     0.009054269464737     0.008552654622205    -0.037147735487789
     0.006614771952155     0.001060465810370    -0.084209189485529
   5  14
     0.045580479678290    -0.014239730188485    -0.014610159429560
    -0.011274437511781     0.042021697874460     0.041178878117847
    -0.027418618733626     0.018640269994560     0.027950462351025
   5  15
    -0.004858377673028     0.043026755282516     0.065989594284453
     0.020348163467057    -0.097658605381519    -0.058358608976579
     0.055591898141094    -0.051666766515724    -0.061029849204248
   5  16
    -1.070309795806764    -0.019519643949390    -1.184760959156560
    -0.068782639567530     0.079829084701633    -0.028059027393482
    -1.211353399615384    -0.010210972640934    -1.033520086957620
   5  17
    -0.921590951491430    -0.073210566535603    -1.082088660140606
    -0.063819368588385     0.056331385492729    -0.060188408861330
    -0.950172059605895    -0.060611478797772    -0.899148953008498
   5  18
     0.080633307967798     0.034343613221000     0.014492896968591
     0.005610586502517    -0.848605681239259     1.007395342884021
     0.009240098188234     0.910840405443956    -0.870512905931298
   5  19
    -0.003671630606516    -0.072707088574843     0.044921580075370
    -0.078541667052040    -0.101877101103411     0.071026938494328
     0.052954579772039     0.064991579736828    -0.037627237186374
   5  20
     0.089431518734065    -0.018819604103328     0.050220714550480
     0.042544007787866    -1.010635589467272     1.159293057132478
     0.015606073308134     1.174121920686660    -1.041956177582570
   5  21
    -1.055436066514044     1.223535580071226     0.045073761647011
     1.222495053337635    -1.094010718727668    -0.081628040505351
     0.044834906091665    -0.081336634209683     0.151616398046129
   5  22
    -0.028669268777854     0.007739030240598     0.000516238251024
     0.006905805689867    -0.103206469281431     0.031279338940126
     0.000396568324128     0.031639437617134    -0.034048386352334
   5  23
     0.008091819621996    -0.017207288262996     0.045488958191475
    -0.018113561261407     0.019878189139506     0.045694133475351