30
Lattice="0.0154109670226164 -7.988234213846791 0.0157784321573144 1.9988874500261655 -2.0166340607126445 8.011895491850627 -8.014293099942227 2.0163492039975424 -1.9983647045872792" Properties=Z:I:1:pos:R:3:vasp_force:R:3 uuid=9cba4389-123b-4329-bb73-276239352e5c vasp_virial="-0.04783317337393031 -0.019778244719618848 -0.003653860468450745 -0.019778244719618848 -0.036388610412403564 0.05480490714131909 -0.003653860468450745 0.05480490714131909 0.04039945724846156" vasp_energy=-132.1541166 pbc="T T T"
      46      -0.02027676      -0.00974011       0.02066377      -0.00205500       0.07000000       0.00054700 
      46      -6.02578866      -1.98528129       0.03064273      -0.00305100      -0.00063500      -0.00145900 
      46      -4.01698816      -5.98717162       2.03900614      -0.00176700      -0.00067900      -0.00121900 
      46      -2.02359863      -2.00082775       4.03159112      -0.00272000      -0.00083900      -0.00182100 
      46      -0.01479814      -6.00271809       6.03995453      -0.00386300      -0.00182100      -0.00102600 
      46       0.01016335      -5.99473985       2.01388329       0.00178300      -0.01083000      -0.01233100 
      46      -6.01074022       0.00795323       2.00810356      -0.00011000      -0.00101800      -0.00147900 
      46      -4.00193973      -3.99393711       4.01646697       0.00135900      -0.00147100      -0.00195300 
      46      -1.99313923      -7.99582745       6.02483039       0.00077900      -0.00035900      -0.00147300 
      46      -1.99863715      -1.99284951       0.00551987      -0.00769700      -0.00967300      -0.00212900 
      46       0.00304007      -4.00235516       4.01331641      -0.00040400       0.00145400       0.00137800 
      46      -6.00245253      -5.98789629       4.02331512      -0.00192800      -0.00548900       0.01032800 
      46      -4.00906300      -2.00155242       6.01590010       0.00567400      -0.00702800       0.00197500 
      46      -3.99914996      -3.98680870       0.01236802      -0.00083100       0.00074900       0.00089800 
      46      -2.00576043      -0.00046482       2.00495300      -0.00122600       0.00142700       0.00198400 
      46      -1.97530073      -5.99546458       3.99819205       0.00235400       0.00053900       0.00110100 
      46       0.01808880      -2.00912070       5.99077703       0.00335000       0.00134400       0.00063500 
      46      -5.98740380      -3.99466184       6.00077573       0.00336600      -0.00012000       0.00102400 
      46      -5.97749076      -5.97991811      -0.00275635       0.00302400       0.00254700       0.00140100 
      46      -3.98410123      -1.99357424       1.98982863       0.00261700       0.00062300       0.00243700 
      47      -1.99733858      -4.00220933       6.01334431       0.00097900      -0.00026500      -0.00018500 
      47      -1.98742554      -5.98746560       0.00981223       0.01313100      -0.01051300      -0.00020800 
      47       0.00596399      -2.00112173       2.00239721       0.00099300      -0.01131600       0.01154000 
      47      -5.99952861      -3.98666286       2.01239591       0.00060400      -0.00041100      -0.00032500 
      47      -4.00613908      -0.00031899       4.00498089       0.00087200       0.00090000      -0.00057800 
      47      -4.00486398      -5.99517058       6.02738649      -0.01217700      -0.00908000       0.00048900 
      47      -4.01036190       0.00780735       0.00807598      -0.00080000       0.00045200       0.00019400 
      47      -2.00156141      -3.99408299       2.01643939      -0.00103600      -0.00018400       0.00040700 
      47       0.00723909      -7.99597332       4.02480281      -0.00054700       0.00059300       0.00047700 
      47      -6.01366448      -1.99328024       4.01902308      -0.00067300      -0.00889800      -0.01062700 
30
Lattice="0.0154109670226164 -7.988234213846791 0.0157784321573144 1.9988874500261655 -2.0166340607126445 8.011895491850627 -8.014293099942227 2.0163492039975424 -1.9983647045872792" Properties=Z:I:1:pos:R:3:vasp_force:R:3 uuid=3feac6b1-f9e3-469d-8ee0-f414d468a870 vasp_virial="-0.01977524483417677 -0.025394030267188467 -0.006446753815025163 -0.025394030267188467 -0.03407869862200366 0.06600947926747963 -0.006446753815025163 0.06600947926747963 0.020774206686388675" vasp_energy=-132.15413541 pbc="T T T"
      46      -0.00488509      -7.98797437       0.03642245      -0.00316800      -0.00745600      -0.00607600 
      46      -6.02578866      -1.98528129       0.03064273      -0.00290600       0.00037800      -0.00056500 
      46      -4.01698816      -5.98717162       2.03900614      -0.00246100      -0.00064500      -0.00109100 
      46      -2.02359863      -2.00082775       4.03159112      -0.00275400      -0.00019500      -0.00207100 
      46      -0.01479814      -6.00271809       6.03995453      -0.00329500      -0.00109200      -0.00228300 
      46       0.00781176      -5.99236739       2.00445771       0.02021700      -0.01583100       0.06509400 
      46      -6.01074022       0.00795323       2.00810356       0.00031500      -0.00093200      -0.00176800 
      46      -4.00193973      -3.99393711       4.01646697       0.00095900      -0.00031400      -0.00198500 
      46      -1.99313923      -7.99582745       6.02483039       0.00074400      -0.00009300      -0.00116700 
      46      -1.99863715      -1.99284951       0.00551987       0.00224400       0.00010200      -0.00263600 
      46       0.00304007      -4.00235516       4.01331641      -0.00049200      -0.00530000      -0.00422900 
      46      -6.00245253      -5.98789629       4.02331512      -0.00153800       0.00125800       0.00164700 
      46      -4.00906300      -2.00155242       6.01590010      -0.00177300      -0.00011900       0.00209600 
      46      -3.99914996      -3.98680870       0.01236802      -0.00098100       0.00033100       0.00102500 
      46      -2.00576043      -0.00046482       2.00495300      -0.00132400       0.00049200       0.00209400 
      46      -1.97530073      -5.99546458       3.99819205       0.00972100       0.00012000      -0.00409100 
      46       0.01808880      -2.00912070       5.99077703       0.00302100      -0.00045200       0.00106800 
      46      -5.98740380      -3.99466184       6.00077573       0.00357400       0.00950800      -0.00752600 
      46      -5.97749076      -5.97991811      -0.00275635      -0.00036400       0.00406400       0.00142300 
      46      -3.98410123      -1.99357424       1.98982863       0.00253400       0.00015100       0.00250400 
      47      -1.99733858      -4.00220933       6.01334431       0.00087600      -0.00037300      -0.00027500 
      47      -1.98742554      -5.98746560       0.00981223      -0.01231200      -0.00055800      -0.01264900 
      47       0.00596399      -2.00112173       2.00239721       0.00079800      -0.00057300      -0.00045300 
      47      -5.99952861      -3.98666286       2.01239591      -0.01225500      -0.00064000      -0.01223300 
      47      -4.00613908      -0.00031899       4.00498089       0.00106200      -0.00046100      -0.00068800 
      47      -4.00486398      -5.99517058       6.02738649       0.00759500      -0.00016700      -0.00652400 
      47      -4.01036190       0.00780735       0.00807598      -0.00080200       0.00027000       0.00018500 
      47      -2.00156141      -3.99408299       2.01643939      -0.00584100       0.00515800       0.00164500 
      47       0.00723909      -7.99597332       4.02480281      -0.00052900       0.01267500      -0.01081900 
      47      -6.01366448      -1.99328024       4.01902308      -0.00086400       0.00069200       0.00034700 
30
Lattice="0.0154109670226164 -7.988234213846791 0.0157784321573144 1.9988874500261655 -2.0166340607126445 8.011895491850627 -8.014293099942227 2.0163492039975424 -1.9983647045872792" Properties=Z:I:1:pos:R:3:vasp_force:R:3 uuid=decfb532-5d8f-4e67-91f2-da9c0f99d2b8 vasp_virial="-0.020663210925031796 -0.03182578465500324 0.0004199839618908902 -0.03182578465500324 -0.03001685373343034 0.06064868398248661 0.0004199839618908902 0.06064868398248661 0.020069233607500396" vasp_energy=-132.15408342 pbc="T T T"
      46      -0.00488509      -7.98797437       0.03642245      -0.00295200      -0.00035200      -0.00068800 
      46      -6.02578866      -1.98528129       0.03064273      -0.00814800      -0.00653600      -0.00080500 
      46      -4.01698816      -5.98717162       2.03900614      -0.00314100      -0.00042400      -0.00138500 
      46      -2.02359863      -2.00082775       4.03159112      -0.00274300      -0.00019000      -0.00205500 
      46      -0.01479814      -6.00271809       6.03995453      -0.00295000      -0.00134500      -0.00154500 
      46       0.00073725      -5.99236830       2.01153289       0.06932900      -0.01578000       0.01552500 
      46      -6.01074022       0.00795323       2.00810356      -0.00003000      -0.00090400      -0.00137000 
      46      -4.00193973      -3.99393711       4.01646697       0.00122100      -0.00040900      -0.00205300 
      46      -1.99313923      -7.99582745       6.02483039       0.00084700       0.00000000      -0.00141900 
      46      -1.99863715      -1.99284951       0.00551987       0.00187200       0.00006000      -0.00226300 
      46       0.00304007      -4.00235516       4.01331641      -0.00019700       0.00083500       0.00134800 
      46      -6.00245253      -5.98789629       4.02331512      -0.00169300       0.00133900       0.00262400 
      46      -4.00906300      -2.00155242       6.01590010      -0.00236400      -0.00015600       0.00271200 
      46      -3.99914996      -3.98680870       0.01236802      -0.00193400       0.00022800       0.00118000 
      46      -2.00576043      -0.00046482       2.00495300      -0.00691400      -0.00584400       0.00180700 
      46      -1.97530073      -5.99546458       3.99819205      -0.00343100       0.00009700       0.00918900 
      46       0.01808880      -2.00912070       5.99077703       0.00348800      -0.00050600       0.00057800 
      46      -5.98740380      -3.99466184       6.00077573       0.00352300       0.00363000      -0.00266200 
      46      -5.97749076      -5.97991811      -0.00275635      -0.00489500       0.00952600       0.00146100 
      46      -3.98410123      -1.99357424       1.98982863       0.00298100       0.00027000       0.00207900 
      47      -1.99733858      -4.00220933       6.01334431       0.00060500      -0.00034700      -0.00000100 
      47      -1.98742554      -5.98746560       0.00981223      -0.01099800      -0.00043300      -0.01382000 
      47       0.00596399      -2.00112173       2.00239721       0.00109600      -0.00059200      -0.00075800 
      47      -5.99952861      -3.98666286       2.01239591      -0.01117700      -0.00079100      -0.01343100 
      47      -4.00613908      -0.00031899       4.00498089       0.00080100      -0.00049600      -0.00039800 
      47      -4.00486398      -5.99517058       6.02738649      -0.00799400      -0.00015400       0.00898100 
      47      -4.01036190       0.00780735       0.00807598      -0.00124700       0.00029000       0.00004200 
      47      -2.00156141      -3.99408299       2.01643939      -0.01273400       0.01321200       0.00063100 
      47       0.00723909      -7.99597332       4.02480281       0.00047300       0.00511800      -0.00430800 
      47      -6.01366448      -1.99328024       4.01902308      -0.00069300       0.00065300       0.00080400 
30
Lattice="0.0154109670226164 -7.988234213846791 0.0157784321573144 1.9988874500261655 -2.0166340607126445 8.011895491850627 -8.014293099942227 2.0163492039975424 -1.9983647045872792" Properties=Z:I:1:pos:R:3:vasp_force:R:3 uuid=2d3b6176-3990-4f4b-bde3-c1da30fda565 vasp_virial="-0.0288738973799987 -0.016244379668851214 -0.006701744077601775 -0.016244379668851214 -0.03455868029273611 0.05747780507021039 -0.006701744077601775 0.05747780507021039 0.03144779908930144" vasp_energy=-132.15411964 pbc="T T T"
      46      -0.00488509      -7.98797437       0.03642245      -0.00353000      -0.00085800      -0.00115200 
      46      -6.02578866      -1.98528129       0.03064273       0.00199300       0.00695300      -0.00087300 
      46      -4.01698816      -5.98717162       2.03900614      -0.00094600      -0.00043700      -0.00121400 
      46      -2.02359863      -2.00082775       4.03159112      -0.00280900      -0.00098600      -0.00218400 
      46      -0.01479814      -6.00271809       6.03995453      -0.00347000      -0.00080600      -0.00076200 
      46       0.01958945      -5.99711140       2.01623368      -0.06649800       0.01479900      -0.02112100 
      46      -6.01074022       0.00795323       2.00810356       0.00047900      -0.00089900      -0.00161800 
      46      -4.00193973      -3.99393711       4.01646697       0.00121400      -0.00062000      -0.00207400 
      46      -1.99313923      -7.99582745       6.02483039       0.00065600      -0.00043400      -0.00092700 
      46      -1.99863715      -1.99284951       0.00551987       0.00239000       0.00014800      -0.00246300 
      46       0.00304007      -4.00235516       4.01331641      -0.00024100       0.00084000       0.00159700 
      46      -6.00245253      -5.98789629       4.02331512      -0.00139800       0.00104600       0.00305200 
      46      -4.00906300      -2.00155242       6.01590010      -0.00187600      -0.00016200       0.00200700 
      46      -3.99914996      -3.98680870       0.01236802       0.00044500       0.00009100       0.00114400 
      46      -2.00576043      -0.00046482       2.00495300       0.00441800       0.00659700       0.00234600 
      46      -1.97530073      -5.99546458       3.99819205       0.00748500       0.00063300      -0.00640400 
      46       0.01808880      -2.00912070       5.99077703       0.00278000       0.00016700       0.00109900 
      46      -5.98740380      -3.99466184       6.00077573       0.00299600      -0.00247600       0.00448000 
      46      -5.97749076      -5.97991811      -0.00275635       0.01169100      -0.00791100       0.00080800 
      46      -3.98410123      -1.99357424       1.98982863       0.00259500       0.00081400       0.00216400 
      47      -1.99733858      -4.00220933       6.01334431       0.00104600      -0.00029600      -0.00021500 
      47      -1.98742554      -5.98746560       0.00981223       0.01298100      -0.00000600       0.01249400 
      47       0.00596399      -2.00112173       2.00239721       0.00048400      -0.00079500      -0.00081900 
      47      -5.99952861      -3.98666286       2.01239591       0.01297200      -0.00010600       0.01305100 
      47      -4.00613908      -0.00031899       4.00498089       0.00119200      -0.00040700      -0.00052200 
      47      -4.00486398      -5.99517058       6.02738649       0.00570100       0.00046900      -0.00841800 
      47      -4.01036190       0.00780735       0.00807598      -0.00037400       0.00024300       0.00016800 
      47      -2.00156141      -3.99408299       2.01643939       0.01032300      -0.01189100       0.00031100 
      47       0.00723909      -7.99597332       4.02480281      -0.00183800      -0.00434200       0.00528000 
      47      -6.01366448      -1.99328024       4.01902308      -0.00085900       0.00062800       0.00076700 
30
Lattice="0.0154109670226164 -7.988234213846791 0.0157784321573144 1.9988874500261655 -2.0166340607126445 8.011895491850627 -8.014293099942227 2.0163492039975424 -1.9983647045872792" Properties=Z:I:1:pos:R:3:vasp_force:R:3 uuid=a51540e1-5c1a-492c-8463-1686c087a16f vasp_virial="-0.012299530312518927 -0.02307511882046234 -0.0036298613849141226 -0.02307511882046234 -0.03173878797718299 0.05872875729955683 -0.0036298613849141226 0.05872875729955683 0.013859470742399375" vasp_energy=-132.15411325 pbc="T T T"
      46      -0.00488509      -7.98797437       0.03642245      -0.00337000       0.00002400      -0.00075500 
      46      -6.02578866      -1.98528129       0.03064273      -0.00298400       0.00111400      -0.00060000 
      46      -4.01698816      -5.98717162       2.03900614      -0.00186400       0.00017300      -0.00149000 
      46      -2.02359863      -2.00082775       4.03159112       0.00498600      -0.00719600      -0.00241600 
      46      -0.01479814      -6.00271809       6.03995453      -0.00348700      -0.00795400       0.00691500 
      46       0.01016335      -5.99473985       2.01388329       0.00171000      -0.00938500      -0.01168200 
      46      -6.01074022       0.00795323       2.00810356      -0.00820200      -0.00863300      -0.00131700 
      46      -4.00193973      -3.99393711       4.01646697       0.00133000      -0.00017900      -0.00183800 
      46      -1.99313923      -7.99582745       6.02483039       0.00068300      -0.00052000      -0.00118900 
      46      -1.99863715      -1.99284951       0.00551987       0.00236000       0.00045500      -0.00227300 
      46       0.00305936      -4.01235512       4.01333616      -0.00036400       0.06801500       0.00197600 
      46      -6.00245253      -5.98789629       4.02331512      -0.00175900       0.00005200       0.00256700 
      46      -4.00906300      -2.00155242       6.01590010      -0.00208200      -0.00034100       0.00250500 
      46      -3.99914996      -3.98680870       0.01236802      -0.00055300      -0.00002000       0.00119000 
      46      -2.00576043      -0.00046482       2.00495300      -0.00148300      -0.00068400       0.00183200 
      46      -1.97530073      -5.99546458       3.99819205      -0.00830400      -0.00937900       0.00110100 
      46       0.01808880      -2.00912070       5.99077703       0.00293100      -0.00974600      -0.00920800 
      46      -5.98740380      -3.99466184       6.00077573       0.00322100       0.00048000       0.00098800 
      46      -5.97749076      -5.97991811      -0.00275635       0.00311600       0.00008800       0.00101700 
      46      -3.98410123      -1.99357424       1.98982863       0.00283800       0.00042300       0.00208900 
      47      -1.99733858      -4.00220933       6.01334431       0.00077800       0.00087200      -0.00018500 
      47      -1.98742554      -5.98746560       0.00981223       0.00115200      -0.00046600      -0.00034600 
      47       0.00596399      -2.00112173       2.00239721       0.00079700      -0.00997600       0.00996500 
      47      -5.99952861      -3.98666286       2.01239591       0.01186100      -0.01002300      -0.00047400 
      47      -4.00613908      -0.00031899       4.00498089       0.00106100      -0.00070900      -0.00052500 
      47      -4.00486398      -5.99517058       6.02738649      -0.00110000       0.00023100       0.00020200 
      47      -4.01036190       0.00780735       0.00807598      -0.00095700       0.00033900       0.00019000 
      47      -2.00156141      -3.99408299       2.01643939      -0.00096100       0.00171600       0.00052700 
      47       0.00723909      -7.99597332       4.02480281      -0.00060500      -0.00072700       0.00050200 
      47      -6.01366448      -1.99328024       4.01902308      -0.00075000       0.00195900       0.00073400 
30
Lattice="0.0154109670226164 -7.988234213846791 0.0157784321573144 1.9988874500261655 -2.0166340607126445 8.011895491850627 -8.014293099942227 2.0163492039975424 -1.9983647045872792" Properties=Z:I:1:pos:R:3:vasp_force:R:3 uuid=5dd5cfe2-9f35-44e1-8ca3-863bd3b30743 vasp_virial="-0.03616361900424772 -0.02389408754614957 -0.003521865508999322 -0.02389408754614957 -0.031756787289835456 0.05913074194879526 -0.003521865508999322 0.05913074194879526 0.03839553377315359" vasp_energy=-132.1541337 pbc="T T T"
      46      -0.00488509      -7.98797437       0.03642245      -0.00307900      -0.00116400      -0.00109900 
      46      -6.02578866      -1.98528129       0.03064273      -0.00331400      -0.00079200      -0.00099300 
      46      -4.01698816      -5.98717162       2.03900614      -0.00221600      -0.00095900      -0.00112700 
      46      -2.02359863      -2.00082775       4.03159112      -0.01085300       0.00634000      -0.00182800 
      46      -0.01479814      -6.00271809       6.03995453      -0.00290900       0.00565300      -0.00888300 
      46       0.01016335      -5.99473985       2.01388329       0.00144000       0.00671500       0.00564700 
      46      -6.01074022       0.00795323       2.00810356       0.00903100       0.00717600      -0.00167600 
      46      -4.00193973      -3.99393711       4.01646697       0.00114400      -0.00077300      -0.00230900 
      46      -1.99313923      -7.99582745       6.02483039       0.00083100       0.00017200      -0.00112800 
      46      -1.99863715      -1.99284951       0.00551987       0.00193400      -0.00016900      -0.00247100 
      46       0.00302078      -3.99235520       4.01329666      -0.00126400      -0.06708300       0.00131100 
      46      -6.00245253      -5.98789629       4.02331512      -0.00129900       0.00241900       0.00311000 
      46      -4.00906300      -2.00155242       6.01590010      -0.00212000       0.00010500       0.00219600 
      46      -3.99914996      -3.98680870       0.01236802      -0.00088800       0.00042700       0.00111900 
      46      -2.00576043      -0.00046482       2.00495300      -0.00091300       0.00168300       0.00228700 
      46      -1.97530073      -5.99546458       3.99819205       0.01205800       0.00994200       0.00148700 
      46       0.01808880      -2.00912070       5.99077703       0.00337500       0.00975100       0.01126300 
      46      -5.98740380      -3.99466184       6.00077573       0.00330800       0.00073700       0.00086100 
      46      -5.97749076      -5.97991811      -0.00275635       0.00336100       0.00202800       0.00125600 
      46      -3.98410123      -1.99357424       1.98982863       0.00276400       0.00072500       0.00214800 
      47      -1.99733858      -4.00220933       6.01334431       0.00092800      -0.00143600      -0.00007000 
      47      -1.98742554      -5.98746560       0.00981223       0.00130300       0.00014400      -0.00044000 
      47       0.00596399      -2.00112173       2.00239721       0.00081700       0.00895100      -0.01194600 
      47      -5.99952861      -3.98666286       2.01239591      -0.01009000       0.00889400      -0.00046600 
      47      -4.00613908      -0.00031899       4.00498089       0.00096700      -0.00010900      -0.00040700 
      47      -4.00486398      -5.99517058       6.02738649      -0.00126200       0.00014800       0.00055200 
      47      -4.01036190       0.00780735       0.00807598      -0.00063000       0.00028200       0.00000700 
      47      -2.00156141      -3.99408299       2.01643939      -0.00093700      -0.00084400       0.00041200 
      47       0.00723909      -7.99597332       4.02480281      -0.00067900       0.00163500       0.00040500 
      47      -6.01366448      -1.99328024       4.01902308      -0.00080700      -0.00059800       0.00078300 
30
Lattice="0.0154109670226164 -7.988234213846791 0.0157784321573144 1.9988874500261655 -2.0166340607126445 8.011895491850627 -8.014293099942227 2.0163492039975424 -1.9983647045872792" Properties=Z:I:1:pos:R:3:vasp_force:R:3 uuid=d160297d-9f8a-410e-9f68-de08bc24fba0 vasp_virial="-0.018770283211080714 -0.0252410361096425 -0.006785740869979955 -0.0252410361096425 -0.03471467433572415 0.06602747858013208 -0.006785740869979955 0.06602747858013208 0.02176716876771642" vasp_energy=-132.15412676 pbc="T T T"
      46      -0.00488509      -7.98797437       0.03642245      -0.00311100      -0.00031400      -0.00114900 
      46      -6.02578866      -1.98528129       0.03064273      -0.01076800       0.00039900       0.00457300 
      46      -4.01698816      -5.98717162       2.03900614      -0.00178100      -0.00001800      -0.00167100 
      46      -2.02359863      -2.00082775       4.03159112       0.00081700      -0.00361300      -0.00238500 
      46      -0.01479814      -6.00271809       6.03995453      -0.00351600      -0.00999100       0.00731700 
      46       0.01016335      -5.99473985       2.01388329       0.00185500       0.00492800       0.00289500 
      46      -6.01074022       0.00795323       2.00810356       0.00036200      -0.00090500      -0.00150600 
      46      -4.00193973      -3.99393711       4.01646697       0.00147400      -0.00066400      -0.00192000 
      46      -1.99313923      -7.99582745       6.02483039       0.00042200      -0.00022900      -0.00088900 
      46      -1.99863715      -1.99284951       0.00551987       0.00214000       0.00005900      -0.00116200 
      46       0.00539166      -4.00472762       4.02274198      -0.01971800       0.01635200      -0.06673500 
      46      -6.00245253      -5.98789629       4.02331512      -0.00164300       0.00121400       0.00312200 
      46      -4.00906300      -2.00155242       6.01590010      -0.00209500      -0.00025500       0.00237400 
      46      -3.99914996      -3.98680870       0.01236802      -0.00046500      -0.00001900       0.00109000 
      46      -2.00576043      -0.00046482       2.00495300      -0.00127800       0.00051900       0.00235600 
      46      -1.97530073      -5.99546458       3.99819205       0.00186000       0.00014000       0.00104800 
      46       0.01808880      -2.00912070       5.99077703       0.00307800       0.00669100       0.00599600 
      46      -5.98740380      -3.99466184       6.00077573       0.00335300       0.00060900       0.00207300 
      46      -5.97749076      -5.97991811      -0.00275635       0.00320900       0.00064500       0.00111000 
      46      -3.98410123      -1.99357424       1.98982863       0.00321400       0.00077700       0.00192400 
      47      -1.99733858      -4.00220933       6.01334431      -0.00795000       0.00001600       0.00681000 
      47      -1.98742554      -5.98746560       0.00981223       0.00131800      -0.00023100       0.00006000 
      47       0.00596399      -2.00112173       2.00239721       0.00067800      -0.01293200       0.01050200 
      47      -5.99952861      -3.98666286       2.01239591       0.00554600      -0.00520500      -0.00164100 
      47      -4.00613908      -0.00031899       4.00498089       0.00100800      -0.00042600      -0.00052900 
      47      -4.00486398      -5.99517058       6.02738649      -0.00123100       0.00022300       0.00056100 
      47      -4.01036190       0.00780735       0.00807598      -0.00085600       0.00030400       0.00034400 
      47      -2.00156141      -3.99408299       2.01643939       0.01196100       0.00059300       0.01223700 
      47       0.00723909      -7.99597332       4.02480281      -0.00065000       0.00031700       0.00013600 
      47      -6.01366448      -1.99328024       4.01902308       0.01276600       0.00101800       0.01305700 
30
Lattice="0.0154109670226164 -7.988234213846791 0.0157784321573144 1.9988874500261655 -2.0166340607126445 8.011895491850627 -8.014293099942227 2.0163492039975424 -1.9983647045872792" Properties=Z:I:1:pos:R:3:vasp_force:R:3 uuid=4f14a336-5deb-4dcb-8bb9-314a65a340b7 vasp_virial="-0.028756901847757664 -0.021755169225948112 0.000533979608689846 -0.021755169225948112 -0.029476874353856333 0.05110904827667925 0.000533979608689846 0.05110904827667925 0.03100981581475808" vasp_energy=-132.15407824 pbc="T T T"
      46      -0.00488509      -7.98797437       0.03642245      -0.00334200      -0.00086200      -0.00070300 
      46      -6.02578866      -1.98528129       0.03064273       0.00472900      -0.00013000      -0.00630200 
      46      -4.01698816      -5.98717162       2.03900614      -0.00228000      -0.00078300      -0.00092900 
      46      -2.02359863      -2.00082775       4.03159112      -0.00637700       0.00250800      -0.00183700 
      46      -0.01479814      -6.00271809       6.03995453      -0.00289600       0.00747800      -0.00924700 
      46       0.01016335      -5.99473985       2.01388329       0.00131400      -0.00754300      -0.00865400 
      46      -6.01074022       0.00795323       2.00810356       0.00008600      -0.00086700      -0.00148800 
      46      -4.00193973      -3.99393711       4.01646697       0.00099600      -0.00031900      -0.00221400 
      46      -1.99313923      -7.99582745       6.02483039       0.00111300      -0.00015700      -0.00143900 
      46      -1.99863715      -1.99284951       0.00551987       0.00215400       0.00019300      -0.00356800 
      46       0.00068848      -3.99998270       4.00389084       0.01803300      -0.01453900       0.06978500 
      46      -6.00245253      -5.98789629       4.02331512      -0.00142500       0.00121200       0.00254900 
      46      -4.00906300      -2.00155242       6.01590010      -0.00210200      -0.00000300       0.00235000 
      46      -3.99914996      -3.98680870       0.01236802      -0.00100000       0.00038600       0.00123600 
      46      -2.00576043      -0.00046482       2.00495300      -0.00110200       0.00045900       0.00177900 
      46      -1.97530073      -5.99546458       3.99819205       0.00230600       0.00068000       0.00155700 
      46       0.01808880      -2.00912070       5.99077703       0.00320500      -0.00681300      -0.00423500 
      46      -5.98740380      -3.99466184       6.00077573       0.00318400       0.00056100      -0.00020200 
      46      -5.97749076      -5.97991811      -0.00275635       0.00326300       0.00144100       0.00119600 
      46      -3.98410123      -1.99357424       1.98982863       0.00238200       0.00033600       0.00231900 
      47      -1.99733858      -4.00220933       6.01334431       0.00942700      -0.00059700      -0.00692500 