  30
   1   1
     7.037524366216670     0.524896975228052     0.603956985273644
     0.543867265251336     6.858143128566782     0.294922498473601
     0.580931419075106     0.308089564802976     6.867360294766000
   1   2
    -0.038060428162257     0.026197880043193    -0.006758069168965
     0.014580304475353    -0.762724403342215     0.739800488960341
    -0.017074583431510     0.873330993376162    -0.729033456894760
   1   3
    -0.048862097079280     0.048449918133615     0.066105235941937
     0.050149428638953     0.002164025968759     0.054056410134849
     0.084419029721260     0.028072503706154    -0.032744294939860
   1   4
    -0.048920865232626     0.050763766782137     0.083826886325098
     0.047791192469623     0.002160124717986     0.028597141934932
     0.066668769719504     0.053647937724576    -0.032732162794409
   1   5
    -0.038090138567036     0.015056468404577    -0.017759654110116
     0.025596360602084    -0.762765873319483     0.873790869596950
    -0.006101384883166     0.739437962902242    -0.728913651823013
   1   6
    -0.064575268118727    -0.013391365486407    -0.029228136420934
     0.017610590102647     0.029965238129534    -0.005658189362647
     0.023903891937747     0.012571355901672     0.040226610937582
   1   7
     0.025863706494773     0.027642082956006    -0.004426948304074
    -0.022004844335543    -0.079509857530414    -0.009275538542815
    -0.014779762522269    -0.007493432469453     0.034105160702238
   1   8
     0.033235419934177     0.036060812152418    -0.001398471273170
     0.025831834172463    -0.856679227185426    -0.996636415135434
    -0.009955487221705    -0.995341636387058    -0.879775539042596
   1   9
     0.029091714991067    -0.031914396146568     0.017376014878275
    -0.027018516835215     0.018197513894353     0.003689102802955
    -0.012403615761373    -0.019357043595855    -0.097976201925791
   1  10
    -0.013096069703031     0.000141115718735     0.024302271371305
     0.002980393577476    -0.011538515777227    -0.010740631991812
     0.004342607622408    -0.015342101533922    -0.001807337394797
   1  11
    -0.685836992344653    -0.039748841325614     0.738962577501636
    -0.022405365016337    -0.035456636195354    -0.033453824886074
     0.696379959440681    -0.028649292272721    -0.710804330217573
   1  12
    -0.728579583889223     0.793213246582885    -0.019228846583681
     0.727487641158150    -0.785232135738133     0.016947348977356
    -0.009716545542376    -0.002267827057768    -0.074397882663038
   1  13
    -0.823050791051605     0.831580874688630    -0.017621234639808
     0.905307413563029    -0.864530149233622     0.016842039198743
    -0.028660988508061     0.038469701690518    -0.060423832066506
   1  14
    -0.785023639874175    -0.029759765733315     0.797434913018238
    -0.059772696394784    -0.018719295435534    -0.018635932234795
     0.867748712224121    -0.033088766932385    -0.789129465333528
   1  15
    -0.047209303966388     0.016635569291164     0.054547842180040
     0.028535400979997    -0.054191254230650     0.061922628096800
     0.036684768034886     0.065253991930753    -0.129051373687829
   1  16
    -0.032921130463956    -0.007188071870032    -0.002197778984608
    -0.024195089338522    -0.004225425052521    -0.011871764760376
    -0.018918060914318    -0.010028398096251    -0.020961185005049
   1  17
     0.000744457881005    -0.005942164529771    -0.016197195709564
     0.015820148326005    -0.016536284486806     0.013767022441172
    -0.008568518192165    -0.003990628041890    -0.015427270179875
   1  18
    -0.936301693417528    -0.006467115544634    -1.079142534214797
    -0.011083554278105     0.093749577036966    -0.037839257701127
    -1.093495564234832    -0.035629427847100    -0.964211485441929
   1  19
    -0.937949355407085    -1.078953794975586    -0.007496635233078
    -1.083407914053471    -0.955336148628277    -0.004026583658853
    -0.002245719562136     0.002704602991073     0.109231198111984
   1  20
     0.004210957588517    -0.008856671585725    -0.015167092112669
    -0.012089491799694    -0.010097025716990     0.000889027545516
     0.007100701825566     0.010412489712079     0.002317167404957
   1  21
    -0.972781980477167    -1.145988334706112     0.007897926325381
    -1.154687130997815    -0.985419219592673     0.016012674926286
     0.027568950685755     0.028636149336010     0.134612785905513
   1  22
    -0.974778647381409     0.006026252586881    -1.144728445085277
     0.022348171554250     0.146443649046967     0.019767873496637
    -1.157208363496394     0.008939770285340    -0.974901619604900
   1  23
    -0.001844421990757     0.007683089035051    -0.017546350432941
     0.012925435244111    -0.013351484484783     0.007886429967792
    -0.017911225489327     0.006093065784811    -0.012252875302757
   1  24
    -0.027879418285259    -0.014731054171460    -0.003077236292080
    -0.025273043251235    -0.003258025435398    -0.006628878716206
    -0.014244361018250    -0.007253090909169    -0.027464066039091
   1  25
    -0.001527815347503    -0.001784253138774    -0.001191741538920
    -0.012549583001328    -0.009835789809807     0.006443628247201
    -0.001142819911709     0.003699605910162     0.011577391591448
   1  26
     0.023766617344178    -0.012552701442721     0.017428943314443
    -0.008180848265346     0.013441453402572     0.005855822225017
    -0.005185878043600    -0.006532178730004    -0.061116570991193
   1  27
     0.106671718247522     0.001792385177699    -0.020768192609480
     0.016851322527376    -0.889474990399784    -1.016567231244488
     0.006232132296135    -1.016414326189756    -0.903177487103039
   1  28
     0.015981603532911     0.018607816172139    -0.003041044623775
    -0.007977256051342    -0.058579992076344    -0.006226789606794
    -0.001822947461599     0.008263027617752     0.027480227943847
   1  29
    -0.062861491685871    -0.003009605766488    -0.014802390200986
     0.013660551640621     0.020316470367770     0.001802883826337
     0.014192228372528    -0.001706203066460     0.023364913343240
   1  30
    -0.006938393747971    -0.004462587937356     0.009938051640625
    -0.000698840363680    -0.007117169027572    -0.005434711785623
     0.003264037209486    -0.004529689849052    -0.003972929622705
   2   1
    -0.038090138567036     0.015056468404577    -0.017759654110116
     0.025596360602084    -0.762765873319483     0.873790869596950
    -0.006101384883166     0.739437962902242    -0.728913651823013
   2   2
     7.037524366216670     0.524896975228053     0.603956985273645
     0.543867265251337     6.858143128566782     0.294922498473601
     0.580931419075107     0.308089564802976     6.867360294766000
   2   3
    -0.038060428162257     0.026197880043193    -0.006758069168965
     0.014580304475353    -0.762724403342215     0.739800488960341
    -0.017074583431510     0.873330993376162    -0.729033456894760
   2   4
    -0.048862097079280     0.048449918133615     0.066105235941937
     0.050149428638953     0.002164025968759     0.054056410134849
     0.084419029721260     0.028072503706154    -0.032744294939860
   2   5
    -0.048920865232626     0.050763766782137     0.083826886325098
     0.047791192469623     0.002160124717986     0.028597141934932
     0.066668769719504     0.053647937724576    -0.032732162794409
   2   6
    -0.013096069703031     0.000141115718735     0.024302271371305
     0.002980393577476    -0.011538515777227    -0.010740631991812
     0.004342607622408    -0.015342101533922    -0.001807337394797
   2   7
    -0.064575268118727    -0.013391365486407    -0.029228136420934
     0.017610590102646     0.029965238129534    -0.005658189362647
     0.023903891937747     0.012571355901672     0.040226610937582
   2   8
     0.025863706494773     0.027642082956006    -0.004426948304074
    -0.022004844335543    -0.079509857530414    -0.009275538542815
    -0.014779762522269    -0.007493432469453     0.034105160702238
   2   9
     0.033235419934177     0.036060812152418    -0.001398471273170
     0.025831834172463    -0.856679227185426    -0.996636415135434
    -0.009955487221704    -0.995341636387058    -0.879775539042596
   2  10
     0.029091714991067    -0.031914396146568     0.017376014878275
    -0.027018516835215     0.018197513894353     0.003689102802955
    -0.012403615761373    -0.019357043595855    -0.097976201925791
   2  11
    -0.047209303966388     0.016635569291164     0.054547842180040
     0.028535400979997    -0.054191254230650     0.061922628096800
     0.036684768034886     0.065253991930753    -0.129051373687829
   2  12
    -0.685836992344653    -0.039748841325614     0.738962577501636
    -0.022405365016337    -0.035456636195354    -0.033453824886074
     0.696379959440680    -0.028649292272721    -0.710804330217573
   2  13
    -0.728579583889223     0.793213246582884    -0.019228846583681
     0.727487641158150    -0.785232135738133     0.016947348977356
    -0.009716545542376    -0.002267827057768    -0.074397882663038
   2  14
    -0.823050791051605     0.831580874688629    -0.017621234639808
     0.905307413563029    -0.864530149233621     0.016842039198743
    -0.028660988508061     0.038469701690518    -0.060423832066506
   2  15
    -0.785023639874175    -0.029759765733315     0.797434913018238
    -0.059772696394784    -0.018719295435534    -0.018635932234795
     0.867748712224121    -0.033088766932385    -0.789129465333528
   2  16
     0.004210957588517    -0.008856671585725    -0.015167092112669
    -0.012089491799694    -0.010097025716990     0.000889027545516
     0.007100701825566     0.010412489712079     0.002317167404957
   2  17
    -0.032921130463956    -0.007188071870032    -0.002197778984608
    -0.024195089338522    -0.004225425052521    -0.011871764760376
    -0.018918060914318    -0.010028398096251    -0.020961185005049
   2  18
     0.000744457881005    -0.005942164529771    -0.016197195709564
     0.015820148326005    -0.016536284486806     0.013767022441172
    -0.008568518192165    -0.003990628041890    -0.015427270179875
   2  19
    -0.936301693417528    -0.006467115544634    -1.079142534214797
    -0.011083554278105     0.093749577036966    -0.037839257701127
    -1.093495564234832    -0.035629427847100    -0.964211485441929
   2  20
    -0.937949355407085    -1.078953794975586    -0.007496635233078
    -1.083407914053471    -0.955336148628277    -0.004026583658853
    -0.002245719562136     0.002704602991073     0.109231198111984
   2  21
    -0.001527815347503    -0.001784253138774    -0.001191741538920
    -0.012549583001328    -0.009835789809807     0.006443628247201
    -0.001142819911709     0.003699605910162     0.011577391591448
   2  22
    -0.972781980477167    -1.145988334706112     0.007897926325381
    -1.154687130997815    -0.985419219592674     0.016012674926286
     0.027568950685755     0.028636149336010     0.134612785905513
   2  23
    -0.974778647381409     0.006026252586881    -1.144728445085277
     0.022348171554250     0.146443649046967     0.019767873496637
    -1.157208363496394     0.008939770285340    -0.974901619604900
   2  24
    -0.001844421990757     0.007683089035051    -0.017546350432941
     0.012925435244111    -0.013351484484783     0.007886429967792
    -0.017911225489327     0.006093065784811    -0.012252875302757
   2  25
    -0.027879418285259    -0.014731054171460    -0.003077236292080
    -0.025273043251235    -0.003258025435398    -0.006628878716206
    -0.014244361018251    -0.007253090909169    -0.027464066039091
   2  26
    -0.006938393747971    -0.004462587937356     0.009938051640625
    -0.000698840363680    -0.007117169027572    -0.005434711785623
     0.003264037209486    -0.004529689849052    -0.003972929622705
   2  27
     0.023766617344178    -0.012552701442721     0.017428943314443
    -0.008180848265346     0.013441453402572     0.005855822225017
    -0.005185878043600    -0.006532178730004    -0.061116570991193
   2  28
     0.106671718247522     0.001792385177699    -0.020768192609480
     0.016851322527376    -0.889474990399784    -1.016567231244488
     0.006232132296135    -1.016414326189756    -0.903177487103039
   2  29
     0.015981603532911     0.018607816172139    -0.003041044623775
    -0.007977256051342    -0.058579992076344    -0.006226789606794
    -0.001822947461599     0.008263027617752     0.027480227943847
   2  30
    -0.062861491685871    -0.003009605766488    -0.014802390200986
     0.013660551640621     0.020316470367770     0.001802883826337
     0.014192228372528    -0.001706203066460     0.023364913343240
   3   1
    -0.048920865232626     0.050763766782137     0.083826886325098
     0.047791192469623     0.002160124717986     0.028597141934932
     0.066668769719504     0.053647937724576    -0.032732162794409
   3   2
    -0.038090138567036     0.015056468404577    -0.017759654110116
     0.025596360602084    -0.762765873319483     0.873790869596950
    -0.006101384883166     0.739437962902242    -0.728913651823013
   3   3
     7.037524366216670     0.524896975228053     0.603956985273645
     0.543867265251337     6.858143128566782     0.294922498473601
     0.580931419075107     0.308089564802976     6.867360294766000
   3   4
    -0.038060428162257     0.026197880043193    -0.006758069168965
     0.014580304475353    -0.762724403342215     0.739800488960341
    -0.017074583431510     0.873330993376162    -0.729033456894760
   3   5
    -0.048862097079280     0.048449918133615     0.066105235941937
     0.050149428638953     0.002164025968759     0.054056410134849
     0.084419029721260     0.028072503706154    -0.032744294939860
   3   6
     0.029091714991067    -0.031914396146568     0.017376014878275
    -0.027018516835215     0.018197513894353     0.003689102802955
    -0.012403615761373    -0.019357043595855    -0.097976201925791
   3   7
    -0.013096069703031     0.000141115718735     0.024302271371305
     0.002980393577476    -0.011538515777227    -0.010740631991812
     0.004342607622408    -0.015342101533922    -0.001807337394797
   3   8
    -0.064575268118727    -0.013391365486407    -0.029228136420934
     0.017610590102646     0.029965238129534    -0.005658189362647
     0.023903891937747     0.012571355901672     0.040226610937582
   3   9
     0.025863706494773     0.027642082956006    -0.004426948304074
    -0.022004844335543    -0.079509857530414    -0.009275538542815
    -0.014779762522269    -0.007493432469453     0.034105160702238
   3  10
     0.033235419934177     0.036060812152418    -0.001398471273170
     0.025831834172463    -0.856679227185426    -0.996636415135434
    -0.009955487221704    -0.995341636387058    -0.879775539042596
   3  11
    -0.785023639874175    -0.029759765733315     0.797434913018238
    -0.059772696394784    -0.018719295435534    -0.018635932234795
     0.867748712224121    -0.033088766932385    -0.789129465333528
   3  12
    -0.047209303966388     0.016635569291164     0.054547842180040
     0.028535400979997    -0.054191254230650     0.061922628096800
     0.036684768034886     0.065253991930753    -0.129051373687829
   3  13
    -0.685836992344653    -0.039748841325614     0.738962577501636
    -0.022405365016337    -0.035456636195354    -0.033453824886074
     0.696379959440680    -0.028649292272721    -0.710804330217573
   3  14
    -0.728579583889223     0.793213246582884    -0.019228846583681
     0.727487641158150    -0.785232135738133     0.016947348977356
    -0.009716545542376    -0.002267827057768    -0.074397882663038
   3  15
    -0.823050791051605     0.831580874688629    -0.017621234639808
     0.905307413563029    -0.864530149233621     0.016842039198743
    -0.028660988508061     0.038469701690518    -0.060423832066506
   3  16
    -0.937949355407085    -1.078953794975586    -0.007496635233078
    -1.083407914053471    -0.955336148628277    -0.004026583658853
    -0.002245719562136     0.002704602991073     0.109231198111984
   3  17
     0.004210957588517    -0.008856671585725    -0.015167092112669
    -0.012089491799694    -0.010097025716990     0.000889027545516
     0.007100701825566     0.010412489712079     0.002317167404957
   3  18
    -0.032921130463956    -0.007188071870032    -0.002197778984608
    -0.024195089338522    -0.004225425052521    -0.011871764760376
    -0.018918060914318    -0.010028398096251    -0.020961185005049
   3  19
     0.000744457881005    -0.005942164529771    -0.016197195709564
     0.015820148326005    -0.016536284486806     0.013767022441172
    -0.008568518192165    -0.003990628041890    -0.015427270179875
   3  20
    -0.936301693417528    -0.006467115544634    -1.079142534214797
    -0.011083554278105     0.093749577036966    -0.037839257701127
    -1.093495564234832    -0.035629427847100    -0.964211485441929
   3  21
    -0.027879418285259    -0.014731054171460    -0.003077236292080
    -0.025273043251235    -0.003258025435398    -0.006628878716206
    -0.014244361018251    -0.007253090909169    -0.027464066039091
   3  22
    -0.001527815347503    -0.001784253138774    -0.001191741538920
    -0.012549583001328    -0.009835789809807     0.006443628247201
    -0.001142819911709     0.003699605910162     0.011577391591448
   3  23
    -0.972781980477167    -1.145988334706112     0.007897926325381
    -1.154687130997815    -0.985419219592674     0.016012674926286
     0.027568950685755     0.028636149336010     0.134612785905513
   3  24
    -0.974778647381409     0.006026252586881    -1.144728445085277
     0.022348171554250     0.146443649046967     0.019767873496637
    -1.157208363496394     0.008939770285340    -0.974901619604900
   3  25
    -0.001844421990757     0.007683089035051    -0.017546350432941
     0.012925435244111    -0.013351484484783     0.007886429967792
    -0.017911225489327     0.006093065784811    -0.012252875302757
   3  26
    -0.062861491685871    -0.003009605766488    -0.014802390200986
     0.013660551640621     0.020316470367770     0.001802883826337
     0.014192228372528    -0.001706203066460     0.023364913343240
   3  27
    -0.006938393747971    -0.004462587937356     0.009938051640625
    -0.000698840363680    -0.007117169027572    -0.005434711785623
     0.003264037209486    -0.004529689849052    -0.003972929622705
   3  28
     0.023766617344178    -0.012552701442721     0.017428943314443
    -0.008180848265346     0.013441453402572     0.005855822225017
    -0.005185878043600    -0.006532178730004    -0.061116570991193
   3  29
     0.106671718247522     0.001792385177699    -0.020768192609480
     0.016851322527376    -0.889474990399784    -1.016567231244488
     0.006232132296135    -1.016414326189756    -0.903177487103039
   3  30
     0.015981603532911     0.018607816172139    -0.003041044623775
    -0.007977256051342    -0.058579992076344    -0.006226789606794
    -0.001822947461599     0.008263027617752     0.027480227943847
   4   1
    -0.048862097079280     0.048449918133615     0.066105235941937
     0.050149428638953     0.002164025968759     0.054056410134849
     0.084419029721260     0.028072503706154    -0.032744294939860
   4   2
    -0.048920865232626     0.050763766782137     0.083826886325098
     0.047791192469623     0.002160124717986     0.028597141934932
     0.066668769719504     0.053647937724576    -0.032732162794409
   4   3
    -0.038090138567036     0.015056468404577    -0.017759654110116
     0.025596360602084    -0.762765873319483     0.873790869596950
    -0.006101384883166     0.739437962902242    -0.728913651823013
   4   4
     7.037524366216670     0.524896975228053     0.603956985273645
     0.543867265251337     6.858143128566782     0.294922498473601
     0.580931419075107     0.308089564802976     6.867360294766000
   4   5
    -0.038060428162257     0.026197880043193    -0.006758069168965
     0.014580304475353    -0.762724403342215     0.739800488960341
    -0.017074583431510     0.873330993376162    -0.729033456894760
   4   6
     0.033235419934177     0.036060812152418    -0.001398471273170
     0.025831834172463    -0.856679227185426    -0.996636415135434
    -0.009955487221704    -0.995341636387058    -0.879775539042596
   4   7
     0.029091714991067    -0.031914396146568     0.017376014878275
    -0.027018516835215     0.018197513894353     0.003689102802955
    -0.012403615761373    -0.019357043595855    -0.097976201925791
   4   8
    -0.013096069703031     0.000141115718735     0.024302271371305
     0.002980393577476    -0.011538515777227    -0.010740631991812
     0.004342607622408    -0.015342101533922    -0.001807337394797
   4   9
    -0.064575268118727    -0.013391365486407    -0.029228136420934
     0.017610590102646     0.029965238129534    -0.005658189362647
     0.023903891937747     0.012571355901672     0.040226610937582
   4  10
     0.025863706494773     0.027642082956006    -0.004426948304074
    -0.022004844335543    -0.079509857530414    -0.009275538542815
    -0.014779762522269    -0.007493432469453     0.034105160702238
   4  11
    -0.823050791051605     0.831580874688629    -0.017621234639808
     0.905307413563029    -0.864530149233621     0.016842039198743
    -0.028660988508061     0.038469701690518    -0.060423832066506
   4  12
    -0.785023639874175    -0.029759765733315     0.797434913018238
    -0.059772696394784    -0.018719295435534    -0.018635932234795
     0.867748712224121    -0.033088766932385    -0.789129465333528
   4  13
    -0.047209303966388     0.016635569291164     0.054547842180040
     0.028535400979997    -0.054191254230650     0.061922628096800
     0.036684768034886     0.065253991930753    -0.129051373687829
   4  14
    -0.685836992344653    -0.039748841325614     0.738962577501636
    -0.022405365016337    -0.035456636195354    -0.033453824886074
     0.696379959440680    -0.028649292272721    -0.710804330217573
   4  15
    -0.728579583889223     0.793213246582884    -0.019228846583681
     0.727487641158150    -0.785232135738133     0.016947348977356
    -0.009716545542376    -0.002267827057768    -0.074397882663038
   4  16
    -0.936301693417528    -0.006467115544634    -1.079142534214797
    -0.011083554278105     0.093749577036966    -0.037839257701127
    -1.093495564234832    -0.035629427847100    -0.964211485441929
   4  17
    -0.937949355407085    -1.078953794975586    -0.007496635233078
    -1.083407914053471    -0.955336148628277    -0.004026583658853
    -0.002245719562136     0.002704602991073     0.109231198111984
   4  18
     0.004210957588517    -0.008856671585725    -0.015167092112669
    -0.012089491799694    -0.010097025716990     0.000889027545516
     0.007100701825566     0.010412489712079     0.002317167404957
   4  19
    -0.032921130463956    -0.007188071870032    -0.002197778984608
    -0.024195089338522    -0.004225425052521    -0.011871764760376
    -0.018918060914318    -0.010028398096251    -0.020961185005049
   4  20
     0.000744457881005    -0.005942164529771    -0.016197195709564
     0.015820148326005    -0.016536284486806     0.013767022441172
    -0.008568518192165    -0.003990628041890    -0.015427270179875
   4  21
    -0.001844421990757     0.007683089035051    -0.017546350432941
     0.012925435244111    -0.013351484484783     0.007886429967792
    -0.017911225489327     0.006093065784811    -0.012252875302757
   4  22
    -0.027879418285259    -0.014731054171460    -0.003077236292080
    -0.025273043251235    -0.003258025435398    -0.006628878716206
    -0.014244361018251    -0.007253090909169    -0.027464066039091
   4  23
    -0.001527815347503    -0.001784253138774    -0.001191741538920
    -0.012549583001328    -0.009835789809807     0.006443628247201
    -0.001142819911709     0.003699605910162     0.011577391591448
   4  24
    -0.972781980477167    -1.145988334706112     0.007897926325381
    -1.154687130997815    -0.985419219592674     0.016012674926286
     0.027568950685755     0.028636149336010     0.134612785905513
   4  25
    -0.974778647381409     0.006026252586881    -1.144728445085277
     0.022348171554250     0.146443649046967     0.019767873496637
    -1.157208363496394     0.008939770285340    -0.974901619604900
   4  26
     0.015981603532911     0.018607816172139    -0.003041044623775
    -0.007977256051342    -0.058579992076344    -0.006226789606794
    -0.001822947461599     0.008263027617752     0.027480227943847
   4  27
    -0.062861491685871    -0.003009605766488    -0.014802390200986
     0.013660551640621     0.020316470367770     0.001802883826337
     0.014192228372528    -0.001706203066460     0.023364913343240
   4  28
    -0.006938393747971    -0.004462587937356     0.009938051640625
    -0.000698840363680    -0.007117169027572    -0.005434711785623
     0.003264037209486    -0.004529689849052    -0.003972929622705
   4  29
     0.023766617344178    -0.012552701442721     0.017428943314443
    -0.008180848265346     0.013441453402572     0.005855822225017
    -0.005185878043600    -0.006532178730004    -0.061116570991193
   4  30
     0.106671718247522     0.001792385177699    -0.020768192609480
     0.016851322527376    -0.889474990399784    -1.016567231244488
     0.006232132296135    -1.016414326189756    -0.903177487103039
   5   1
    -0.038060428162257     0.026197880043193    -0.006758069168965
     0.014580304475353    -0.762724403342215     0.739800488960341
    -0.017074583431510     0.873330993376162    -0.729033456894760
   5   2
    -0.048862097079280     0.048449918133615     0.066105235941937
     0.050149428638953     0.002164025968759     0.054056410134849
     0.084419029721260     0.028072503706154    -0.032744294939860
   5   3
    -0.048920865232626     0.050763766782137     0.083826886325098
     0.047791192469623     0.002160124717986     0.028597141934932
     0.066668769719504     0.053647937724576    -0.032732162794409
   5   4
    -0.038090138567036     0.015056468404577    -0.017759654110116
     0.025596360602084    -0.762765873319483     0.873790869596950
    -0.006101384883166     0.739437962902242    -0.728913651823013
   5   5
     7.037524366216670     0.524896975228053     0.603956985273645
     0.543867265251337     6.858143128566782     0.294922498473601
     0.580931419075107     0.308089564802976     6.867360294766000
   5   6
     0.025863706494773     0.027642082956006    -0.004426948304074
    -0.022004844335543    -0.079509857530414    -0.009275538542815
    -0.014779762522269    -0.007493432469453     0.034105160702238
   5   7
     0.033235419934177     0.036060812152418    -0.001398471273170
     0.025831834172463    -0.856679227185426    -0.996636415135434
    -0.009955487221704    -0.995341636387058    -0.879775539042596
   5   8
     0.029091714991067    -0.031914396146568     0.017376014878275
    -0.027018516835215     0.018197513894353     0.003689102802955
    -0.012403615761373    -0.019357043595855    -0.097976201925791
   5   9
    -0.013096069703031     0.000141115718735     0.024302271371305
     0.002980393577476    -0.011538515777227    -0.010740631991812
     0.004342607622408    -0.015342101533922    -0.001807337394797
   5  10
    -0.064575268118727    -0.013391365486407    -0.029228136420934
     0.017610590102646     0.029965238129534    -0.005658189362647
     0.023903891937747     0.012571355901672     0.040226610937582
   5  11
    -0.728579583889223     0.793213246582884    -0.019228846583681
     0.727487641158150    -0.785232135738133     0.016947348977356
    -0.009716545542376    -0.002267827057768    -0.074397882663038
   5  12
    -0.823050791051605     0.831580874688629    -0.017621234639808
     0.905307413563029    -0.864530149233621     0.016842039198743
    -0.028660988508061     0.038469701690518    -0.060423832066506
   5  13
    -0.785023639874175    -0.029759765733315     0.797434913018238
    -0.059772696394784    -0.018719295435534    -0.018635932234795
     0.867748712224121    -0.033088766932385    -0.789129465333528
   5  14
    -0.047209303966388     0.016635569291164     0.054547842180040
     0.028535400979997    -0.054191254230650     0.061922628096800
     0.036684768034886     0.065253991930753    -0.129051373687829
   5  15
    -0.685836992344653    -0.039748841325614     0.738962577501636
    -0.022405365016337    -0.035456636195354    -0.033453824886074
     0.696379959440680    -0.028649292272721    -0.710804330217573
   5  16
     0.000744457881005    -0.005942164529771    -0.016197195709564
     0.015820148326005    -0.016536284486806     0.013767022441172
    -0.008568518192165    -0.003990628041890    -0.015427270179875
   5  17
    -0.936301693417528    -0.006467115544634    -1.079142534214797
    -0.011083554278105     0.093749577036966    -0.037839257701127
    -1.093495564234832    -0.035629427847100    -0.964211485441929
   5  18
    -0.937949355407085    -1.078953794975586    -0.007496635233078
    -1.083407914053471    -0.955336148628277    -0.004026583658853
    -0.002245719562136     0.002704602991073     0.109231198111984
   5  19
     0.004210957588517    -0.008856671585725    -0.015167092112669
    -0.012089491799694    -0.010097025716990     0.000889027545516
     0.007100701825566     0.010412489712079     0.002317167404957
   5  20
    -0.032921130463956    -0.007188071870032    -0.002197778984608
    -0.024195089338522    -0.004225425052521    -0.011871764760376
    -0.018918060914318    -0.010028398096251    -0.020961185005049
   5  21
    -0.974778647381409     0.006026252586881    -1.144728445085277
     0.022348171554250     0.146443649046967     0.019767873496637
    -1.157208363496394     0.008939770285340    -0.974901619604900
   5  22
    -0.001844421990757     0.007683089035051    -0.017546350432941
     0.012925435244111    -0.013351484484783     0.007886429967792
    -0.017911225489327     0.006093065784811    -0.012252875302757
   5  23
    -0.027879418285259    -0.014731054171460    -0.003077236292080
    -0.025273043251235    -0.003258025435398    -0.006628878716206