30
Lattice="-4.024511103596187 6.044843189368559 -2.014888639529843 -4.0244373057793865 -4.0299265980129375 8.059285270086296 2.0167798279952933 4.0343485099597265 6.0489401175799955" Properties=Z:I:1:pos:R:3:vasp_force:R:3 uuid=929b727b-8a9c-4f9c-8a30-0d6eded10f70 vasp_virial="-0.10772771372030027 -0.06952654884757309 -0.00797223059117364 -0.06952654884757309 0.07099052357772331 -0.0959944769186152 -0.00797223059117364 -0.0959944769186152 0.057915820391507306" vasp_energy=-120.54196419 pbc="T T T"
      46      -4.02707719       0.01055371       4.02953939       0.03570800      -0.04976000       0.02114900 
      46      -4.02172230      -2.01242116       6.04704774       0.00029600       0.00932200      -0.00632800 
      46      -8.04621865       2.01746807       6.04699388       0.00007000       0.00158500       0.00164900 
      46      -4.02176658       4.03244071       0.00254339      -0.00056800       0.00169300       0.00189500 
      46      -4.02175182       2.01748675       2.01737817       0.00001900       0.00986100      -0.00748000 
      46      -4.04146274       6.03489645       2.00475701       0.00114700      -0.00258100       0.00015300 
      46      -4.04144798       4.01994249       4.01959179       0.00219000      -0.00209600       0.00040400 
      46      -4.04143322       2.00498854       6.03442657       0.00219200       0.00080200       0.00562700 
      46      -4.04141846      -0.00996542       8.04926135       0.00305200      -0.00342800      -0.00092700 
      46      -0.01696640       2.00500722       2.00481087       0.00162600      -0.00227400       0.00076700 
      46      -1.99408104       0.00439111       2.01935729      -0.00203700       0.00303100       0.00199800 
      46      -6.01857738       4.03428034       2.01930343      -0.00885500       0.01385100       0.00008700 
      46      -6.01856262       2.01932638       4.03413822      -0.01206000       0.01522100      -0.00027700 
      46      -6.01854787       0.00437242       6.04897300      -0.00188400       0.00361100       0.00239700 
      46      -1.99409580       2.01934506       0.00452251      -0.00122200       0.00391000      -0.00081800 
      47       0.01897653       2.02984235       6.05931193      -0.00170200      -0.00144100      -0.00149600 
      47      -4.00551981       6.05973158       6.05925807      -0.00146300      -0.00146300      -0.00178300 
      47      -4.00550506       4.04477762       8.07409285      -0.01047600      -0.00215000      -0.00876500 
      47      -4.00549030       2.02982367      10.08892763       0.00157900       0.00108500      -0.00098100 
      47       0.01896177       4.04479631       4.04447715      -0.00216600      -0.00087900      -0.00165900 
      47      -2.02461041       2.00459795       4.01932051       0.00703800       0.00212200       0.00089500 
      47      -2.02459565      -0.01035600       6.03415529      -0.00676400      -0.00070500      -0.00725100 
      47      -6.04909200       4.01953323       6.03410143       0.00221000       0.00055800       0.00158900 
      47      -6.04907724       2.00457927       8.04893622       0.00239700       0.00007200       0.00185200 
      47      -2.02462517       4.01955191       2.00448573       0.00255600       0.00000200       0.00141300 
      47      -2.01367061       4.03721416       6.05168688      -0.00230700      -0.00117400      -0.00182500 
      47      -2.01365585       2.02226021       8.06652166      -0.00241800       0.00369900       0.00340400 
      47      -2.01364109       0.00730625      10.08135644      -0.00234000      -0.00043500      -0.00210000 
      47      -6.03813743       4.03719548      10.08130258      -0.00332300      -0.00116300      -0.00209700 
      47      -2.01368536       6.05216812       4.03685209      -0.00249600      -0.00087700      -0.00149300 
30
Lattice="-4.024511103596187 6.044843189368559 -2.014888639529843 -4.0244373057793865 -4.0299265980129375 8.059285270086296 2.0167798279952933 4.0343485099597265 6.0489401175799955" Properties=Z:I:1:pos:R:3:vasp_force:R:3 uuid=d232ff5c-d9ed-4d77-9b18-83179a3d2b52 vasp_virial="-0.1138837580876683 -0.06726933257953815 -0.005552690765193165 -0.06726933257953815 0.06598605765917637 -0.09535743352139503 -0.005552690765193165 -0.09535743352139503 0.061021406952955666" vasp_energy=-120.54193965 pbc="T T T"
      46      -4.02173706       0.00253279       4.03221295       0.00137000       0.00092000       0.00205400 
      46      -4.02172230      -2.01242116       6.04704774       0.00093000       0.00084800       0.00141800 
      46      -8.04621865       2.01746807       6.04699388       0.00067000       0.00134500       0.00113000 
      46      -4.02176658       4.03244071       0.00254339      -0.00040600      -0.00346000      -0.00133500 
      46      -4.02175182       2.01748675       2.01737817       0.00017500       0.00188700       0.00210200 
      46      -4.03738470       6.03898005       1.99659038      -0.02760400      -0.03004000       0.05690300 
      46      -4.04144798       4.01994249       4.01959179       0.00200300       0.00702200      -0.00988700 
      46      -4.04143322       2.00498854       6.03442657       0.00258100      -0.00283500      -0.00064000 
      46      -4.04141846      -0.00996542       8.04926135       0.00270000      -0.00264100      -0.00167500 
      46      -0.01696640       2.00500722       2.00481087       0.00152600       0.00883200      -0.00976000 
      46      -1.99408104       0.00439111       2.01935729      -0.00522800       0.00309500      -0.00361900 
      46      -6.01857738       4.03428034       2.01930343       0.00849500       0.01150600       0.00031500 
      46      -6.01856262       2.01932638       4.03413822      -0.00017300       0.00380800       0.00017000 
      46      -6.01854787       0.00437242       6.04897300      -0.00042600       0.00374800       0.00000200 
      46      -1.99409580       2.01934506       0.00452251      -0.00103800       0.00338900      -0.00049900 
      47       0.01897653       2.02984235       6.05931193      -0.00190100      -0.00488100      -0.00430200 
      47      -4.00551981       6.05973158       6.05925807      -0.00138800      -0.00161900      -0.00182100 
      47      -4.00550506       4.04477762       8.07409285      -0.00237200      -0.00117700      -0.00079900 
      47      -4.00549030       2.02982367      10.08892763      -0.00209100      -0.00085200      -0.00110200 
      47       0.01896177       4.04479631       4.04447715      -0.00238000      -0.00074500      -0.00144200 
      47      -2.02461041       2.00459795       4.01932051       0.00267500      -0.00021000       0.00134300 
      47      -2.02459565      -0.01035600       6.03415529       0.01306700      -0.00004100      -0.01009400 
      47      -6.04909200       4.01953323       6.03410143       0.00233100       0.00047700       0.00155100 
      47      -6.04907724       2.00457927       8.04893622       0.01483900      -0.00029300      -0.00942000 
      47      -2.02462517       4.01955191       2.00448573       0.00179400      -0.00015200       0.00219000 
      47      -2.01367061       4.03721416       6.05168688      -0.00282100      -0.00107800      -0.00188200 
      47      -2.01365585       2.02226021       8.06652166      -0.00277700      -0.00073800      -0.00226600 
      47      -2.01364109       0.00730625      10.08135644      -0.00218900      -0.00063000      -0.00213300 
      47      -6.03813743       4.03719548      10.08130258       0.00379100       0.00580900      -0.00166100 
      47      -2.01368536       6.05216812       4.03685209      -0.00615500      -0.00129700      -0.00484100 
30
Lattice="-4.024511103596187 6.044843189368559 -2.014888639529843 -4.0244373057793865 -4.0299265980129375 8.059285270086296 2.0167798279952933 4.0343485099597265 6.0489401175799955" Properties=Z:I:1:pos:R:3:vasp_force:R:3 uuid=4a3f0485-f2c2-4b1d-b68a-6c288900a81b vasp_virial="-0.11992035681805756 -0.06613000496527899 -0.009068680284466057 -0.06613000496527899 0.05944717471174811 -0.09696535555764788 -0.009068680284466057 -0.09696535555764788 0.048540869242993084" vasp_energy=-120.54194155 pbc="T T T"
      46      -4.02173706       0.00253279       4.03221295       0.00175000       0.00102100       0.00144300 
      46      -4.02172230      -2.01242116       6.04704774       0.00050600       0.00106500       0.00149800 
      46      -8.04621865       2.01746807       6.04699388       0.00045200       0.00125200       0.00274100 
      46      -4.02176658       4.03244071       0.00254339      -0.00037900       0.01353900       0.01388200 
      46      -4.02175182       2.01748675       2.01737817       0.00023200       0.00212900       0.00156100 
      46      -4.03878988       6.04024322       2.01277373      -0.01526500      -0.03779900      -0.05298300 
      46      -4.04144798       4.01994249       4.01959179       0.00149000      -0.00555100       0.00147500 
      46      -4.04143322       2.00498854       6.03442657       0.00191600      -0.00413300       0.00015200 
      46      -4.04141846      -0.00996542       8.04926135       0.00244500      -0.00299600      -0.00091600 
      46      -0.01696640       2.00500722       2.00481087       0.00144900      -0.00573900       0.00223500 
      46      -1.99408104       0.00439111       2.01935729       0.00988900       0.00277000       0.00938200 
      46      -6.01857738       4.03428034       2.01930343       0.00815300       0.01096400       0.00032300 
      46      -6.01856262       2.01932638       4.03413822       0.00023900       0.00376100      -0.00011700 
      46      -6.01854787       0.00437242       6.04897300      -0.00012600       0.00389000       0.00039700 
      46      -1.99409580       2.01934506       0.00452251      -0.00043400       0.00319900       0.00011400 
      47       0.01897653       2.02984235       6.05931193      -0.00171000       0.00960000       0.00941000 
      47      -4.00551981       6.05973158       6.05925807      -0.00136600      -0.00138600      -0.00129200 
      47      -4.00550506       4.04477762       8.07409285      -0.00250400      -0.00123400      -0.00056500 
      47      -4.00549030       2.02982367      10.08892763      -0.00206900      -0.00084900      -0.00141700 
      47       0.01896177       4.04479631       4.04447715      -0.00237000      -0.00088600      -0.00179200 
      47      -2.02461041       2.00459795       4.01932051      -0.00015000       0.00251800      -0.00024500 
      47      -2.02459565      -0.01035600       6.03415529      -0.00410700      -0.00013900       0.00615700 
      47      -6.04909200       4.01953323       6.03410143       0.00233000       0.00033600       0.00182900 
      47      -6.04907724       2.00457927       8.04893622      -0.00348000      -0.00033100       0.00624800 
      47      -2.02462517       4.01955191       2.00448573      -0.00070100       0.00199600       0.00069100 
      47      -2.01367061       4.03721416       6.05168688      -0.00222100      -0.00082100      -0.00135900 
      47      -2.01365585       2.02226021       8.06652166      -0.00260300      -0.00052800      -0.00194900 
      47      -2.01364109       0.00730625      10.08135644      -0.00224300      -0.00080200      -0.00222500 
      47      -6.03813743       4.03719548      10.08130258       0.00399900       0.00588200      -0.00249300 
      47      -2.01368536       6.05216812       4.03685209       0.00687700      -0.00072900       0.00781400 
30
Lattice="-4.024511103596187 6.044843189368559 -2.014888639529843 -4.0244373057793865 -4.0299265980129375 8.059285270086296 2.0167798279952933 4.0343485099597265 6.0489401175799955" Properties=Z:I:1:pos:R:3:vasp_force:R:3 uuid=c093acc6-5701-42a0-a7f5-b1e3bcb4b03b vasp_virial="-0.10364206039389778 -0.06445164063029506 -0.005304611365314154 -0.06445164063029506 0.07626757056527313 -0.09136672416284747 -0.005304611365314154 -0.09136672416284747 0.06718970215488562" vasp_energy=-120.54197209 pbc="T T T"
      46      -4.02173706       0.00253279       4.03221295       0.00078600       0.00130300       0.00234100 
      46      -4.02172230      -2.01242116       6.04704774       0.00081700       0.00074200       0.00131800 
      46      -8.04621865       2.01746807       6.04699388       0.00053500       0.00132000       0.00088500 
      46      -4.02176658       4.03244071       0.00254339       0.00016000      -0.01151300      -0.01094000 
      46      -4.02175182       2.01748675       2.01737817       0.00058800       0.00097000       0.00194000 
      46      -4.04413560       6.02954969       1.99674028       0.01871500       0.03310000       0.05388400 
      46      -4.04144798       4.01994249       4.01959179       0.00229700      -0.00011600      -0.00100100 
      46      -4.04143322       2.00498854       6.03442657       0.00252300      -0.00306400      -0.00028800 
      46      -4.04141846      -0.00996542       8.04926135       0.00293900      -0.00308300      -0.00054700 
      46      -0.01696640       2.00500722       2.00481087       0.00194900       0.00113000      -0.00109700 
      46      -1.99408104       0.00439111       2.01935729      -0.01116000       0.00338100      -0.01037200 
      46      -6.01857738       4.03428034       2.01930343      -0.00713100      -0.00398400       0.00078700 
      46      -6.01856262       2.01932638       4.03413822      -0.00035000       0.00324100       0.00029600 
      46      -6.01854787       0.00437242       6.04897300      -0.00091100       0.00358300      -0.00022300 
      46      -1.99409580       2.01934506       0.00452251      -0.00128300       0.00326700      -0.00067100 
      47       0.01897653       2.02984235       6.05931193      -0.00169000      -0.01183700      -0.01196500 
      47      -4.00551981       6.05973158       6.05925807      -0.00130700      -0.00168800      -0.00181400 
      47      -4.00550506       4.04477762       8.07409285      -0.00261800      -0.00119400      -0.00068700 
      47      -4.00549030       2.02982367      10.08892763      -0.00214800      -0.00078900      -0.00111900 
      47       0.01896177       4.04479631       4.04447715      -0.00227500      -0.00096000      -0.00137200 
      47      -2.02461041       2.00459795       4.01932051       0.00588900      -0.00194600       0.00144300 
      47      -2.02459565      -0.01035600       6.03415529       0.00721100       0.00090100      -0.00310700 
      47      -6.04909200       4.01953323       6.03410143       0.00238300       0.00048900       0.00171100 
      47      -6.04907724       2.00457927       8.04893622       0.00830900       0.00068700      -0.00252600 
      47      -2.02462517       4.01955191       2.00448573       0.00560500      -0.00208700       0.00219500 
      47      -2.01367061       4.03721416       6.05168688      -0.00278800      -0.00110100      -0.00207200 
      47      -2.01365585       2.02226021       8.06652166      -0.00314900      -0.00085400      -0.00242100 
      47      -2.01364109       0.00730625      10.08135644      -0.00275300      -0.00120800      -0.00220200 
      47      -6.03813743       4.03719548      10.08130258      -0.00966100      -0.00761100      -0.00170800 
      47      -2.01368536       6.05216812       4.03685209      -0.01148100      -0.00107900      -0.01066900 
30
Lattice="-4.024511103596187 6.044843189368559 -2.014888639529843 -4.0244373057793865 -4.0299265980129375 8.059285270086296 2.0167798279952933 4.0343485099597265 6.0489401175799955" Properties=Z:I:1:pos:R:3:vasp_force:R:3 uuid=a75cf3de-06f3-48fd-8a50-9719d79e891d vasp_virial="-0.11477194359340796 -0.06155431825639947 -0.009050304032623167 -0.06155431825639947 0.06794925389772508 -0.09434980237867657 -0.009050304032623167 -0.09434980237867657 0.055444214518638645" vasp_energy=-120.54200087 pbc="T T T"
      46      -4.02173706       0.00253279       4.03221295      -0.00007300       0.00122300       0.00394800 
      46      -4.02172230      -2.01242116       6.04704774       0.00044300       0.00164900       0.00074300 
      46      -8.04621865       2.01746807       6.04699388      -0.00131500       0.00106800       0.00460400 
      46      -4.02176658       4.03244071       0.00254339      -0.01093300       0.01285600       0.00113500 
      46      -4.02175182       2.01748675       2.01737817      -0.01014200       0.01201000       0.00154300 
      46      -4.04146274       6.03489645       2.00475701      -0.00602800      -0.00222600      -0.00781000 
      46      -4.04144798       4.01994249       4.01959179       0.00176000      -0.00283900      -0.00014800 
      46      -4.04143322       2.00498854       6.03442657       0.00220200      -0.00378700      -0.00014200 
      46      -4.04141846      -0.00996542       8.04926135       0.00297100      -0.00282200      -0.00083900 
      46      -0.01696640       2.00500722       2.00481087       0.00513400      -0.00032400       0.00054900 
      46      -1.99942117       0.01241202       2.01668373       0.03416700      -0.04950800       0.01524000 
      46      -6.01857738       4.03428034       2.01930343      -0.00006600       0.01130800      -0.00696200 
      46      -6.01856262       2.01932638       4.03413822      -0.00051600       0.00378600      -0.00008900 
      46      -6.01854787       0.00437242       6.04897300      -0.00095600       0.00412700       0.00020000 
      46      -1.99409580       2.01934506       0.00452251      -0.00134000       0.01137000      -0.00818900 
      47       0.01897653       2.02984235       6.05931193      -0.00121600       0.00312300       0.00406800 
      47      -4.00551981       6.05973158       6.05925807      -0.00122600      -0.00089000      -0.00147900 
      47      -4.00550506       4.04477762       8.07409285      -0.00296000      -0.00147300      -0.00060400 
      47      -4.00549030       2.02982367      10.08892763      -0.00211000      -0.00078500      -0.00115600 
      47       0.01896177       4.04479631       4.04447715      -0.00207800      -0.00107900      -0.00170800 
      47      -2.02461041       2.00459795       4.01932051       0.00334500       0.00531500       0.00716700 
      47      -2.02459565      -0.01035600       6.03415529       0.00188600       0.00018300       0.00139500 
      47      -6.04909200       4.01953323       6.03410143       0.00228500       0.00050800       0.00193600 
      47      -6.04907724       2.00457927       8.04893622       0.00202200      -0.00003600       0.00194800 
      47      -2.02462517       4.01955191       2.00448573       0.00248100       0.00054900       0.00158300 
      47      -2.01367061       4.03721416       6.05168688      -0.00949500      -0.00149200      -0.00873600 
      47      -2.01365585       2.02226021       8.06652166      -0.00011400       0.00099800      -0.00194600 
      47      -2.01364109       0.00730625      10.08135644      -0.00226900      -0.00092200      -0.00225800 
      47      -6.03813743       4.03719548      10.08130258      -0.00293600      -0.00105500      -0.00202100 
      47      -2.01368536       6.05216812       4.03685209      -0.00292400      -0.00083500      -0.00197000 
30
Lattice="-4.024511103596187 6.044843189368559 -2.014888639529843 -4.0244373057793865 -4.0299265980129375 8.059285270086296 2.0167798279952933 4.0343485099597265 6.0489401175799955" Properties=Z:I:1:pos:R:3:vasp_force:R:3 uuid=90aa84d4-6b58-4439-ae6f-24fa0939835c vasp_virial="-0.10697428739474178 -0.07086495252346357 -0.005760954952745915 -0.07086495252346357 0.06918658818847963 -0.09659476781214961 -0.005760954952745915 -0.09659476781214961 0.06047011939766897" vasp_energy=-120.54192672 pbc="T T T"
      46      -4.02173706       0.00253279       4.03221295       0.00264000       0.00106900      -0.00015800 
      46      -4.02172230      -2.01242116       6.04704774       0.00089900       0.00014300       0.00207000 
      46      -8.04621865       2.01746807       6.04699388       0.00230400       0.00150000      -0.00098900 
      46      -4.02176658       4.03244071       0.00254339       0.01127200      -0.01076800       0.00236000 
      46      -4.02175182       2.01748675       2.01737817       0.01045000      -0.00844900       0.00198900 
      46      -4.04146274       6.03489645       2.00475701       0.00934000      -0.00229900       0.00832500 
      46      -4.04144798       4.01994249       4.01959179       0.00204900      -0.00285200       0.00066500 
      46      -4.04143322       2.00498854       6.03442657       0.00225400      -0.00342000       0.00001800 
      46      -4.04141846      -0.00996542       8.04926135       0.00243300      -0.00327400      -0.00062600 
      46      -0.01696640       2.00500722       2.00481087      -0.00170500      -0.00433200       0.00057500 
      46      -1.98874091      -0.00362981       2.02203085      -0.03546200       0.05585700      -0.01564000 
      46      -6.01857738       4.03428034       2.01930343       0.00129900      -0.00447100       0.00839000 
      46      -6.01856262       2.01932638       4.03413822       0.00041000       0.00319800       0.00028600 
      46      -6.01854787       0.00437242       6.04897300      -0.00005000       0.00332600      -0.00002900 
      46      -1.99409580       2.01934506       0.00452251      -0.00032300      -0.00459700       0.00728300 
      47       0.01897653       2.02984235       6.05931193      -0.00216300      -0.00595300      -0.00721600 
      47      -4.00551981       6.05973158       6.05925807      -0.00142400      -0.00219000      -0.00161200 
      47      -4.00550506       4.04477762       8.07409285      -0.00213700      -0.00097300      -0.00063900 
      47      -4.00549030       2.02982367      10.08892763      -0.00207800      -0.00086400      -0.00137000 
      47       0.01896177       4.04479631       4.04447715      -0.00254100      -0.00077400      -0.00145000 
      47      -2.02461041       2.00459795       4.01932051       0.00245500      -0.00469600      -0.00583300 
      47      -2.02459565      -0.01035600       6.03415529       0.00133700       0.00059500       0.00163000 
      47      -6.04909200       4.01953323       6.03410143       0.00245300       0.00030500       0.00161500 
      47      -6.04907724       2.00457927       8.04893622       0.00272800       0.00035100       0.00181900 
      47      -2.02462517       4.01955191       2.00448573       0.00245500      -0.00067500       0.00129400 
      47      -2.01367061       4.03721416       6.05168688       0.00434500      -0.00050000       0.00512700 
      47      -2.01365585       2.02226021       8.06652166      -0.00561300      -0.00236400      -0.00241900 
      47      -2.01364109       0.00730625      10.08135644      -0.00270200      -0.00110100      -0.00215800 
      47      -6.03813743       4.03719548      10.08130258      -0.00289900      -0.00086600      -0.00211700 
      47      -2.01368536       6.05216812       4.03685209      -0.00202800      -0.00092600      -0.00119100 
30
Lattice="-4.024511103596187 6.044843189368559 -2.014888639529843 -4.0244373057793865 -4.0299265980129375 8.059285270086296 2.0167798279952933 4.0343485099597265 6.0489401175799955" Properties=Z:I:1:pos:R:3:vasp_force:R:3 uuid=005799c6-9bd9-4c2b-be43-c31b2a9e0838 vasp_virial="-0.11466168608235063 -0.06741634259428127 -0.0038314485092424983 -0.06741634259428127 0.06589723910860239 -0.09486433743027749 -0.0038314485092424983 -0.09486433743027749 0.05764017661386397" vasp_energy=-120.54194796 pbc="T T T"
      46      -4.02173706       0.00253279       4.03221295      -0.00795600       0.00122500       0.01063800 
      46      -4.02172230      -2.01242116       6.04704774       0.00008900       0.00030600       0.00288400 
      46      -8.04621865       2.01746807       6.04699388      -0.00910000       0.00111900       0.01143900 
      46      -4.02176658       4.03244071       0.00254339       0.00004000       0.00137100       0.00229800 
      46      -4.02175182       2.01748675       2.01737817       0.00084400       0.00116800       0.00231600 
      46      -4.04146274       6.03489645       2.00475701       0.00627400      -0.00222300       0.00343800 
      46      -4.04144798       4.01994249       4.01959179       0.00226900      -0.00307200       0.00051400 
      46      -4.04143322       2.00498854       6.03442657       0.00210700      -0.00356400       0.00000700 
      46      -4.04141846      -0.00996542       8.04926135       0.00262600      -0.00339000      -0.00094800 
      46      -0.01696640       2.00500722       2.00481087      -0.00611100      -0.01033400       0.00073300 
      46      -1.99815908       0.00030750       2.02752392       0.02593900       0.02761300      -0.05349400 
      46      -6.01857738       4.03428034       2.01930343       0.00038400      -0.00552100       0.00970300 
      46      -6.01856262       2.01932638       4.03413822      -0.00056900       0.00352300       0.00082500 
      46      -6.01854787       0.00437242       6.04897300      -0.00104500       0.00347800       0.00065300 
      46      -1.99409580       2.01934506       0.00452251      -0.00141700      -0.00547900       0.00827900 
      47       0.01897653       2.02984235       6.05931193      -0.00115000       0.00319400       0.00181400 
      47      -4.00551981       6.05973158       6.05925807      -0.00125300      -0.00178800      -0.00176600 
      47      -4.00550506       4.04477762       8.07409285      -0.00284000      -0.00114500      -0.00090400 
      47      -4.00549030       2.02982367      10.08892763      -0.00224900      -0.00085000      -0.00116500 
      47       0.01896177       4.04479631       4.04447715      -0.00218800      -0.00076700      -0.00097800 
      47      -2.02461041       2.00459795       4.01932051       0.00339100       0.00580700       0.00416600 
      47      -2.02459565      -0.01035600       6.03415529       0.00162400       0.00041800       0.00214800 
      47      -6.04909200       4.01953323       6.03410143       0.00223400       0.00042300       0.00180800 
      47      -6.04907724       2.00457927       8.04893622       0.00210700       0.00029200       0.00166700 
      47      -2.02462517       4.01955191       2.00448573       0.00261800      -0.00023100       0.00119700 
      47      -2.01367061       4.03721416       6.05168688       0.00151400      -0.00058200       0.00114700 
      47      -2.01365585       2.02226021       8.06652166      -0.01014800      -0.00786200      -0.00266900 
      47      -2.01364109       0.00730625      10.08135644      -0.00280800      -0.00133600      -0.00233600 
      47      -6.03813743       4.03719548      10.08130258      -0.00302800      -0.00091600      -0.00198400 
      47      -2.01368536       6.05216812       4.03685209      -0.00219700      -0.00087800      -0.00142900 
30
Lattice="-4.024511103596187 6.044843189368559 -2.014888639529843 -4.0244373057793865 -4.0299265980129375 8.059285270086296 2.0167798279952933 4.0343485099597265 6.0489401175799955" Properties=Z:I:1:pos:R:3:vasp_force:R:3 uuid=2a513ce6-54e0-45ec-8f51-b89c29c6f02e vasp_virial="-0.10737550222664487 -0.06244250376213913 -0.01287868983322518 -0.06244250376213913 0.07035348018050314 -0.09621499194072987 -0.01287868983322518 -0.09621499194072987 0.05730634137205147" vasp_energy=-120.54197672 pbc="T T T"
      46      -4.02173706       0.00253279       4.03221295       0.01005800       0.00111100      -0.00644700 
      46      -4.02172230      -2.01242116       6.04704774       0.00125400       0.00149500      -0.00008600 
      46      -8.04621865       2.01746807       6.04699388       0.01059900       0.00141900      -0.00828500 
      46      -4.02176658       4.03244071       0.00254339      -0.00030100       0.00129200       0.00120400 
      46      -4.02175182       2.01748675       2.01737817       0.00002000       0.00189100       0.00117100 
      46      -4.04146274       6.03489645       2.00475701      -0.00307800      -0.00232700      -0.00315600 
      46      -4.04144798       4.01994249       4.01959179       0.00154100      -0.00260700      -0.00001300 
      46      -4.04143322       2.00498854       6.03442657       0.00235200      -0.00364500      -0.00015400 
      46      -4.04141846      -0.00996542       8.04926135       0.00277800      -0.00269500      -0.00053500 
      46      -0.01696640       2.00500722       2.00481087       0.00972600       0.00592300       0.00042000 
      46      -1.99000300       0.00847471       2.01119066      -0.02721000      -0.02146800       0.05372800 
      46      -6.01857738       4.03428034       2.01930343       0.00090100       0.01221800      -0.00822200 
      46      -6.01856262       2.01932638       4.03413822       0.00048700       0.00344300      -0.00064000 
      46      -6.01854787       0.00437242       6.04897300       0.00003000       0.00400800      -0.00049700 
      46      -1.99409580       2.01934506       0.00452251      -0.00028800       0.01239200      -0.00927300 
      47       0.01897653       2.02984235       6.05931193      -0.00222400      -0.00603800      -0.00488200 
      47      -4.00551981       6.05973158       6.05925807      -0.00139800      -0.00129100      -0.00134700 
      47      -4.00550506       4.04477762       8.07409285      -0.00226200      -0.00129700      -0.00036000 
      47      -4.00549030       2.02982367      10.08892763      -0.00194600      -0.00079800      -0.00138300 
      47       0.01896177       4.04479631       4.04447715      -0.00244000      -0.00108700      -0.00220400 
      47      -2.02461041       2.00459795       4.01932051       0.00239500      -0.00516100      -0.00296100 