30
Lattice="-4.039113740379211 1.9996085275813602 6.036407473562829 4.019682586614351 7.959414795478829 -4.02413515976976 -4.038338996785372 1.9993168168867064 -6.035798100929816" Properties=Z:I:1:pos:R:3:vasp_force:R:3 uuid=af16b697-7beb-4783-a5cc-8a01910c1802 vasp_virial="0.06710679745644571 0.1056166042083196 0.07516058202755857 0.1056166042083196 -0.015302190685114448 -0.005979783657123276 0.07516058202755857 -0.005979783657123276 0.07734358152972864" vasp_energy=-127.64376059 pbc="T T T"
      46      -2.06463749       5.98313047      -4.01569441       0.04037900      -0.02081300      -0.05614200 
      46      -2.05953408       5.98057336       0.00036119       0.00441500      -0.00349800      -0.00059500 
      46       1.97932141       3.98106207      -2.01197776       0.00463700      -0.00359300      -0.00110700 
      46      -0.04943454       9.96018352      -6.03577492       0.00591100      -0.00472700      -0.00099500 
      46      -0.04969279       9.96028076      -2.01170639       0.00415600      -0.00382000      -0.00109400 
      46       3.98916271       7.96076947      -4.02404534       0.00469000      -0.00305500      -0.00169200 
      46      -4.04223172       3.99109151      -4.02371967      -0.00264700      -0.00238400      -0.00049200 
      46      -4.04248996       3.99118875       0.00034885      -0.00078600       0.00072200       0.00001200 
      46      -4.04274821       3.99128599       4.02441737      -0.00076000       0.00060800       0.00084600 
      46      -2.03239042       7.97079891      -6.03578725      -0.00070300      -0.00456900       0.00352800 
      46      -2.03264867       7.97089615      -2.01171873      -0.00025100       0.00938700       0.00840000 
      46      -2.03290692       7.97099338       2.01234979      -0.00130300       0.00065400       0.00014800 
      46       0.02265252       3.98226572      -0.00006409      -0.00032300       0.00295600       0.00336800 
      46      -4.01594473       5.98167978      -2.01179367      -0.01690500       0.00316900       0.01485100 
      46      -4.01620297       5.98177701       2.01227486      -0.00868900       0.00908500       0.00177700 
      46       2.03249381       7.96197312      -2.01213167      -0.00430100       0.00271800       0.00183900 
      46      -2.00610343       9.96138717      -4.02386125      -0.00396100       0.00366700       0.00167200 
      46      -2.00636168       9.96148441       0.00020728      -0.00338700       0.00411500       0.00167600 
      47      -6.05773857       3.99251038      -2.01151705      -0.00138300       0.00023800       0.00079500 
      47      -6.05799682       3.99260762       2.01255148      -0.00186500       0.00014200       0.00066900 
      47      -2.01914133       1.99309633       0.00021253      -0.00123900      -0.00012500       0.00034900 
      47      -4.04789728       7.97221778      -4.02358463      -0.01034900       0.00978700      -0.00066600 
      47      -4.04815553       7.97231502       0.00048390      -0.01364900      -0.00002700       0.01179200 
      47      -0.00930004       5.97280373      -2.01185505       0.00203800      -0.00055800       0.00178700 
      47      -2.02738524       3.99004319       2.01229458       0.00066400      -0.00036400      -0.00089300 
      47      -2.02686874       3.98984872      -6.03584247       0.00160100       0.01109900       0.00940100 
      47      -2.02712699       3.98994595      -2.01177394       0.00227000      -0.00689000       0.00410800 
      47      -0.01754394       7.96975059       0.00022700       0.00124700      -0.00061400      -0.00050700 
      47      -0.01702745       7.96955611      -8.04791005       0.00121900      -0.00005700      -0.00092500 
      47      -0.01728569       7.96965335      -4.02384152      -0.00072400      -0.00325700      -0.00191000 
30
Lattice="-4.039113740379211 1.9996085275813602 6.036407473562829 4.019682586614351 7.959414795478829 -4.02413515976976 -4.038338996785372 1.9993168168867064 -6.035798100929816" Properties=Z:I:1:pos:R:3:vasp_force:R:3 uuid=5b4549ea-7b43-476e-bf0b-53c456fa6ce0 vasp_virial="0.05825974538246383 0.11616827309190171 0.07598109917747271 0.11616827309190171 -0.019038420068856282 0.006252280127574464 0.07598109917747271 0.006252280127574464 0.07358918571462339" vasp_energy=-127.64377755 pbc="T T T"
      46      -2.05927583       5.98047613      -4.02370734      -0.00560100      -0.01537300      -0.00077300 
      46      -2.05953408       5.98057336       0.00036119       0.00477000      -0.00374000      -0.00128400 
      46       1.97932141       3.98106207      -2.01197776       0.00470200      -0.00373100      -0.00217700 
      46      -0.04943454       9.96018352      -6.03577492       0.00484200      -0.01468600       0.00956800 
      46      -0.04969279       9.96028076      -2.01170639       0.00451800      -0.00346300      -0.00167700 
      46       3.98916271       7.96076947      -4.02404534       0.00447300      -0.00665500      -0.00604400 
      46      -4.04634063       3.98295541      -4.01960621       0.03051100       0.05729100      -0.02937100 
      46      -4.04248996       3.99118875       0.00034885      -0.00086100       0.00034900       0.00003700 
      46      -4.04274821       3.99128599       4.02441737      -0.00104900       0.00046300       0.00083200 
      46      -2.03239042       7.97079891      -6.03578725      -0.00103100      -0.00092600      -0.00021600 
      46      -2.03264867       7.97089615      -2.01171873      -0.00099000       0.00009100      -0.00044900 
      46      -2.03290692       7.97099338       2.01234979      -0.00118000       0.00020000       0.00034300 
      46       0.02265252       3.98226572      -0.00006409      -0.00487000      -0.00685100       0.01215800 
      46      -4.01594473       5.98167978      -2.01179367      -0.00406200       0.00064300      -0.00177800 
      46      -4.01620297       5.98177701       2.01227486      -0.00369700       0.00452700       0.00171900 
      46       2.03249381       7.96197312      -2.01213167      -0.01584400      -0.00848500       0.00229500 
      46      -2.00610343       9.96138717      -4.02386125      -0.00380400       0.00354300       0.00202900 
      46      -2.00636168       9.96148441       0.00020728      -0.00343100       0.00424600       0.00212400 
      47      -6.05773857       3.99251038      -2.01151705      -0.00934200       0.00115600       0.00868600 
      47      -6.05799682       3.99260762       2.01255148       0.00288200      -0.00306000       0.00015400 
      47      -2.01914133       1.99309633       0.00021253      -0.00074100       0.00076300      -0.00005300 
      47      -4.04789728       7.97221778      -4.02358463      -0.00107400      -0.00032200       0.00045000 
      47      -4.04815553       7.97231502       0.00048390      -0.00214600      -0.00006400       0.00069400 
      47      -0.00930004       5.97280373      -2.01185505      -0.00169400      -0.00080300       0.00048900 
      47      -2.02738524       3.99004319       2.01229458       0.00605000      -0.00377100      -0.00113900 
      47      -2.02686874       3.98984872      -6.03584247      -0.00655800       0.00062000       0.00684700 
      47      -2.02712699       3.98994595      -2.01177394       0.00177900       0.00057900      -0.00112000 
      47      -0.01754394       7.96975059       0.00022700       0.00107400      -0.00076800      -0.00061600 
      47      -0.01702745       7.96955611      -8.04791005       0.00150900      -0.00078300      -0.00118600 
      47      -0.01728569       7.96965335      -4.02384152       0.00086400      -0.00098800      -0.00054100 
30
Lattice="-4.039113740379211 1.9996085275813602 6.036407473562829 4.019682586614351 7.959414795478829 -4.02413515976976 -4.038338996785372 1.9993168168867064 -6.035798100929816" Properties=Z:I:1:pos:R:3:vasp_force:R:3 uuid=c5cd42bf-0491-44c9-9807-564af295149d vasp_virial="0.05704562221967576 0.11519334127539856 0.07659573010526817 0.11519334127539856 -0.020770286525501603 0.006400639317042331 0.07659573010526817 0.006400639317042331 0.07305327598940273" vasp_energy=-127.64379448 pbc="T T T"
      46      -2.05927583       5.98047613      -4.02370734       0.00352800      -0.00690700      -0.00133400 
      46      -2.05953408       5.98057336       0.00036119       0.00442700      -0.00368100      -0.00197200 
      46       1.97932141       3.98106207      -2.01197776       0.00475100      -0.00333500      -0.00230800 
      46      -0.04943454       9.96018352      -6.03577492       0.00601200       0.00440200      -0.00939200 
      46      -0.04969279       9.96028076      -2.01170639       0.00409200      -0.00352200      -0.00117500 
      46       3.98916271       7.96076947      -4.02404534       0.00467300      -0.00859100      -0.00642900 
      46      -4.04759304       3.99374582      -4.03173284       0.03859800      -0.01792400       0.05495900 
      46      -4.04248996       3.99118875       0.00034885      -0.00080600       0.00048500      -0.00074100 
      46      -4.04274821       3.99128599       4.02441737      -0.00098900       0.00059200       0.00005300 
      46      -2.03239042       7.97079891      -6.03578725      -0.00095700       0.00105700      -0.00139000 
      46      -2.03264867       7.97089615      -2.01171873      -0.00082600       0.00036600      -0.00004600 
      46      -2.03290692       7.97099338       2.01234979      -0.00101200       0.00046900       0.00073900 
      46       0.02265252       3.98226572      -0.00006409      -0.00364700       0.01214200      -0.00661500 
      46      -4.01594473       5.98167978      -2.01179367      -0.00386800      -0.00121100      -0.00218300 
      46      -4.01620297       5.98177701       2.01227486      -0.00412600       0.00445600       0.00222600 
      46       2.03249381       7.96197312      -2.01213167      -0.00617200       0.00045100       0.00177600 
      46      -2.00610343       9.96138717      -4.02386125      -0.00377100       0.00394700       0.00190700 
      46      -2.00636168       9.96148441       0.00020728      -0.00377400       0.00429000       0.00143400 
      47      -6.05773857       3.99251038      -2.01151705       0.00243700      -0.00010000      -0.00143900 
      47      -6.05799682       3.99260762       2.01255148      -0.00966800       0.00785000       0.00184700 
      47      -2.01914133       1.99309633       0.00021253      -0.01494700      -0.00047400      -0.01300800 
      47      -4.04789728       7.97221778      -4.02358463      -0.00107400       0.00039100       0.00077700 
      47      -4.04815553       7.97231502       0.00048390      -0.00203000      -0.00023200       0.00063500 
      47      -0.00930004       5.97280373      -2.01185505      -0.00136600       0.00006200       0.00008100 
      47      -2.02738524       3.99004319       2.01229458      -0.00662700       0.00734300       0.00060200 
      47      -2.02686874       3.98984872      -6.03584247       0.00503300      -0.00057200      -0.00304800 
      47      -2.02712699       3.98994595      -2.01177394      -0.01176900      -0.00061400      -0.01346500 
      47      -0.01754394       7.96975059       0.00022700       0.00119000      -0.00093600      -0.00067700 
      47      -0.01702745       7.96955611      -8.04791005       0.00150800      -0.00007300      -0.00086400 
      47      -0.01728569       7.96965335      -4.02384152       0.00118100      -0.00013000      -0.00094900 
30
Lattice="-4.039113740379211 1.9996085275813602 6.036407473562829 4.019682586614351 7.959414795478829 -4.02413515976976 -4.038338996785372 1.9993168168867064 -6.035798100929816" Properties=Z:I:1:pos:R:3:vasp_force:R:3 uuid=444074be-06fb-4e2d-b9a7-548db845c471 vasp_virial="0.05832938336935691 0.11473615275275269 0.07748588524207538 0.11473615275275269 -0.019946741637026904 0.00657322041499475 0.07748588524207538 0.00657322041499475 0.07432795392340218" vasp_energy=-127.64377432 pbc="T T T"
      46      -2.05927583       5.98047613      -4.02370734       0.00741000      -0.00162000      -0.00077900 
      46      -2.05953408       5.98057336       0.00036119       0.00456700      -0.00364200      -0.00112900 
      46       1.97932141       3.98106207      -2.01197776       0.00472000      -0.00386600      -0.00192900 
      46      -0.04943454       9.96018352      -6.03577492       0.00488300      -0.01331900       0.00761800 
      46      -0.04969279       9.96028076      -2.01170639       0.00492000      -0.00380800      -0.00192100 
      46       3.98916271       7.96076947      -4.02404534       0.00481700       0.00129500       0.00216400 
      46      -4.03687039       3.98843721      -4.01570651      -0.04025900       0.01872900      -0.05646000 
      46      -4.04248996       3.99118875       0.00034885      -0.00065400       0.00044000       0.00026200 
      46      -4.04274821       3.99128599       4.02441737      -0.00083800       0.00054700       0.00105600 
      46      -2.03239042       7.97079891      -6.03578725      -0.00026400      -0.00018900      -0.00019300 
      46      -2.03264867       7.97089615      -2.01171873      -0.00063100       0.00056400      -0.00042400 
      46      -2.03290692       7.97099338       2.01234979      -0.00081800       0.00066600       0.00036100 
      46       0.02265252       3.98226572      -0.00006409      -0.00477200      -0.00556500       0.01038400 
      46      -4.01594473       5.98167978      -2.01179367      -0.00372600       0.00867000       0.00640400 
      46      -4.01620297       5.98177701       2.01227486      -0.00330000       0.00416900       0.00148100 
      46       2.03249381       7.96197312      -2.01213167      -0.00229000       0.00573400       0.00233200 
      46      -2.00610343       9.96138717      -4.02386125      -0.00380300       0.00341600       0.00228500 
      46      -2.00636168       9.96148441       0.00020728      -0.00363400       0.00432800       0.00227800 
      47      -6.05773857       3.99251038      -2.01151705      -0.00481200       0.00060200       0.00246600 
      47      -6.05799682       3.99260762       2.01255148       0.00583700      -0.00800000      -0.00038900 
      47      -2.01914133       1.99309633       0.00021253       0.01173200       0.00022000       0.01300300 
      47      -4.04789728       7.97221778      -4.02358463      -0.00129000       0.00010300       0.00028300 
      47      -4.04815553       7.97231502       0.00048390      -0.00198900       0.00028900       0.00089000 
      47      -0.00930004       5.97280373      -2.01185505      -0.00121500      -0.00026200       0.00049000 
      47      -2.02738524       3.99004319       2.01229458       0.00885900      -0.00848700      -0.00163100 
      47      -2.02686874       3.98984872      -6.03584247      -0.00222100       0.00013000       0.00085900 
      47      -2.02712699       3.98994595      -2.01177394       0.01491700       0.00008400       0.01255600 
      47      -0.01754394       7.96975059       0.00022700       0.00123100      -0.00041400      -0.00042100 
      47      -0.01702745       7.96955611      -8.04791005       0.00129200      -0.00036100      -0.00135800 
      47      -0.01728569       7.96965335      -4.02384152       0.00133200      -0.00045400      -0.00054000 
30
Lattice="-4.039113740379211 1.9996085275813602 6.036407473562829 4.019682586614351 7.959414795478829 -4.02413515976976 -4.038338996785372 1.9993168168867064 -6.035798100929816" Properties=Z:I:1:pos:R:3:vasp_force:R:3 uuid=7c97c6e1-1af0-4d58-a26d-d494cd098ec3 vasp_virial="0.048667869622582044 0.12384964582006461 0.07713769530760997 0.12384964582006461 -0.02489103870643567 0.01988013138869439 0.07713769530760997 0.01988013138869439 0.06896280119407436" vasp_energy=-127.64384111 pbc="T T T"
      46      -2.05927583       5.98047613      -4.02370734       0.00939300      -0.00445400       0.00027900 
      46      -2.05953408       5.98057336       0.00036119      -0.00066400       0.00124000      -0.00162300 
      46       1.97932141       3.98106207      -2.01197776      -0.00779300      -0.00409100       0.01008400 
      46      -0.04943454       9.96018352      -6.03577492       0.00538900      -0.00468400      -0.00122300 
      46      -0.04969279       9.96028076      -2.01170639       0.00479000      -0.00387700      -0.00169400 
      46       3.98916271       7.96076947      -4.02404534       0.00454400      -0.00363300      -0.00250000 
      46      -4.04223172       3.99109151      -4.02371967      -0.00070300      -0.00467800       0.00358800 
      46      -4.04248996       3.99118875       0.00034885      -0.00113100       0.00052000      -0.00061300 
      46      -4.04274821       3.99128599       4.02441737      -0.00051200       0.00911300       0.00891900 
      46      -2.03239042       7.97079891      -6.03578725      -0.00269400      -0.00241600      -0.00046500 
      46      -2.03264867       7.97089615      -2.01171873      -0.00059600       0.00046700       0.00009000 
      46      -2.03290692       7.97099338       2.01234979      -0.00099900       0.00081900       0.00083000 
      46       0.01729086       3.98492007       0.00794884       0.03123400      -0.01279600      -0.05389300 
      46      -4.01594473       5.98167978      -2.01179367      -0.00391000       0.00366700       0.00311500 
      46      -4.01620297       5.98177701       2.01227486      -0.00381200       0.00445600       0.00284600 
      46       2.03249381       7.96197312      -2.01213167      -0.00383800       0.00263200       0.00212700 
      46      -2.00610343       9.96138717      -4.02386125      -0.00385800       0.00419900       0.00253700 
      46      -2.00636168       9.96148441       0.00020728      -0.00407300       0.00414100       0.00233200 
      47      -6.05773857       3.99251038      -2.01151705      -0.00138300       0.00037700       0.00074300 
      47      -6.05799682       3.99260762       2.01255148      -0.00200000       0.00007100       0.00083400 
      47      -2.01914133       1.99309633       0.00021253      -0.00328700      -0.00309900      -0.00086700 
      47      -4.04789728       7.97221778      -4.02358463      -0.00094200       0.01196500       0.01142900 
      47      -4.04815553       7.97231502       0.00048390      -0.00258300       0.00032200       0.00045000 
      47      -0.00930004       5.97280373      -2.01185505      -0.00034400      -0.00661800       0.00513000 
      47      -2.02738524       3.99004319       2.01229458      -0.01101600      -0.00079300       0.01101500 
      47      -2.02686874       3.98984872      -6.03584247      -0.00757600       0.00905900      -0.00218800 
      47      -2.02712699       3.98994595      -2.01177394       0.00455600      -0.00075700       0.00080800 
      47      -0.01754394       7.96975059       0.00022700       0.00133100      -0.00058600      -0.00061700 
      47      -0.01702745       7.96955611      -8.04791005       0.00118400      -0.00023600      -0.00081700 
      47      -0.01728569       7.96965335      -4.02384152       0.00129200      -0.00033100      -0.00065400 
30
Lattice="-4.039113740379211 1.9996085275813602 6.036407473562829 4.019682586614351 7.959414795478829 -4.02413515976976 -4.038338996785372 1.9993168168867064 -6.035798100929816" Properties=Z:I:1:pos:R:3:vasp_force:R:3 uuid=caa4c68f-e35f-455f-a7d1-ca393e7f0b62 vasp_virial="0.06751856990068306 0.10495958494067618 0.07469733802779156 0.10495958494067618 -0.015662491573822133 -0.006327973591588681 0.07469733802779156 -0.006327973591588681 0.07561777055020445" vasp_energy=-127.64375708 pbc="T T T"
      46      -2.05927583       5.98047613      -4.02370734       0.00156800      -0.00413600      -0.00241000 
      46      -2.05953408       5.98057336       0.00036119       0.00948900      -0.00844700      -0.00151000 
      46       1.97932141       3.98106207      -2.01197776       0.01786000      -0.00309700      -0.01491100 
      46      -0.04943454       9.96018352      -6.03577492       0.00554600      -0.00389800      -0.00088000 
      46      -0.04969279       9.96028076      -2.01170639       0.00418800      -0.00347600      -0.00140900 
      46       3.98916271       7.96076947      -4.02404534       0.00491700      -0.00359500      -0.00173400 
      46      -4.04223172       3.99109151      -4.02371967      -0.00051100       0.00542200      -0.00514600 
      46      -4.04248996       3.99118875       0.00034885      -0.00033300       0.00036900       0.00012700 
      46      -4.04274821       3.99128599       4.02441737      -0.00138300      -0.00836000      -0.00812100 
      46      -2.03239042       7.97079891      -6.03578725       0.00143400       0.00324100      -0.00113100 
      46      -2.03264867       7.97089615      -2.01171873      -0.00087600       0.00041500      -0.00057100 
      46      -2.03290692       7.97099338       2.01234979      -0.00085000       0.00030000       0.00026400 
      46       0.02801417       3.97961137      -0.00807702      -0.03979000       0.01982800       0.05835900 
      46      -4.01594473       5.98167978      -2.01179367      -0.00368000       0.00366500       0.00104600 
      46      -4.01620297       5.98177701       2.01227486      -0.00361600       0.00413700       0.00086100 
      46       2.03249381       7.96197312      -2.01213167      -0.00466500       0.00354700       0.00195400 
      46      -2.00610343       9.96138717      -4.02386125      -0.00373400       0.00312700       0.00163000 
      46      -2.00636168       9.96148441       0.00020728      -0.00335500       0.00445900       0.00136000 
      47      -6.05773857       3.99251038      -2.01151705      -0.00099300       0.00007800       0.00030400 
      47      -6.05799682       3.99260762       2.01255148      -0.00203900      -0.00004200       0.00068100 
      47      -2.01914133       1.99309633       0.00021253       0.00069900       0.00285800       0.00141200 
      47      -4.04789728       7.97221778      -4.02358463      -0.00137600      -0.01107100      -0.01001500 
      47      -4.04815553       7.97231502       0.00048390      -0.00145600      -0.00029200       0.00106800 
      47      -0.00930004       5.97280373      -2.01185505      -0.00229600       0.00649300      -0.00460800 
      47      -2.02738524       3.99004319       2.01229458       0.01285700      -0.00062900      -0.01162000 
      47      -2.02686874       3.98984872      -6.03584247       0.01056900      -0.00975900       0.00004400 
      47      -2.02712699       3.98994595      -2.01177394      -0.00206900       0.00015700      -0.00228700 
      47      -0.01754394       7.96975059       0.00022700       0.00107300      -0.00079700      -0.00049400 
      47      -0.01702745       7.96955611      -8.04791005       0.00160900      -0.00021700      -0.00141500 
      47      -0.01728569       7.96965335      -4.02384152       0.00121300      -0.00027600      -0.00084700 
30
Lattice="-4.039113740379211 1.9996085275813602 6.036407473562829 4.019682586614351 7.959414795478829 -4.02413515976976 -4.038338996785372 1.9993168168867064 -6.035798100929816" Properties=Z:I:1:pos:R:3:vasp_force:R:3 uuid=f38754c2-20c1-4d4a-bdfe-6bae6b14f4a2 vasp_virial="0.04852253817167474 0.11565658527516558 0.07518177619748256 0.11565658527516558 -0.02056137256482236 -0.0005389374637812369 0.07518177619748256 -0.0005389374637812369 0.08652974032249422" vasp_energy=-127.64380576 pbc="T T T"
      46      -2.05927583       5.98047613      -4.02370734       0.00475600      -0.00499100      -0.00013100 
      46      -2.05953408       5.98057336       0.00036119       0.00177100      -0.00222500      -0.00149100 
      46       1.97932141       3.98106207      -2.01197776       0.01260300      -0.00432700      -0.01026100 
      46      -0.04943454       9.96018352      -6.03577492       0.00581600      -0.00478600      -0.00098100 
      46      -0.04969279       9.96028076      -2.01170639       0.00470900      -0.00394200      -0.00127400 
      46       3.98916271       7.96076947      -4.02404534       0.00466400      -0.00365200      -0.00204000 
      46      -4.04223172       3.99109151      -4.02371967      -0.00025400       0.01045700      -0.01100300 
      46      -4.04248996       3.99118875       0.00034885      -0.00070100       0.00024900      -0.00005100 
      46      -4.04274821       3.99128599       4.02441737      -0.00092200       0.00373900       0.00446100 
      46      -2.03239042       7.97079891      -6.03578725       0.01082100       0.01214500      -0.00089900 
      46      -2.03264867       7.97089615      -2.01171873      -0.00089300       0.00059100      -0.00022900 
      46      -2.03290692       7.97099338       2.01234979      -0.00096800       0.00052700       0.00021100 
      46       0.02676143       3.99040183      -0.00417756      -0.03397700      -0.05145700       0.03048300 
      46      -4.01594473       5.98167978      -2.01179367      -0.00370200       0.00397800       0.00165600 
      46      -4.01620297       5.98177701       2.01227486      -0.00353000       0.00451600       0.00132500 
      46       2.03249381       7.96197312      -2.01213167      -0.00412600       0.00392500       0.00156800 
      46      -2.00610343       9.96138717      -4.02386125      -0.00330800       0.00393800       0.00173500 
      46      -2.00636168       9.96148441       0.00020728      -0.00332500       0.00495900       0.00219600 
      47      -6.05773857       3.99251038      -2.01151705      -0.00121300       0.00028000       0.00044400 
      47      -6.05799682       3.99260762       2.01255148      -0.00211500       0.00008000       0.00066900 
      47      -2.01914133       1.99309633       0.00021253       0.01035200       0.01043200       0.00090200 
      47      -4.04789728       7.97221778      -4.02358463      -0.00157100       0.00330800       0.00536800 
      47      -4.04815553       7.97231502       0.00048390      -0.00168500      -0.00007300       0.00093100 
      47      -0.00930004       5.97280373      -2.01185505      -0.00211600       0.01252000      -0.01279200 
      47      -2.02738524       3.99004319       2.01229458       0.00826100      -0.00166000      -0.00730600 
      47      -2.02686874       3.98984872      -6.03584247      -0.00399000       0.00317600      -0.00046000 
      47      -2.02712699       3.98994595      -2.01177394       0.00065700      -0.00097400      -0.00049900 
      47      -0.01754394       7.96975059       0.00022700       0.00100900      -0.00029800      -0.00055400 
      47      -0.01702745       7.96955611      -8.04791005       0.00161600      -0.00029600      -0.00121700 
      47      -0.01728569       7.96965335      -4.02384152       0.00136300      -0.00013800      -0.00076300 
30
Lattice="-4.039113740379211 1.9996085275813602 6.036407473562829 4.019682586614351 7.959414795478829 -4.02413515976976 -4.038338996785372 1.9993168168867064 -6.035798100929816" Properties=Z:I:1:pos:R:3:vasp_force:R:3 uuid=7d4bda4d-7822-4f04-a7d3-204e4d707b3e vasp_virial="0.0624773851973361 0.11483909586381202 0.0773102764055624 0.11483909586381202 -0.024448988876592633 0.012822472804008644 0.0773102764055624 0.012822472804008644 0.05369997111024729" vasp_energy=-127.64377792 pbc="T T T"
      46      -2.05927583       5.98047613      -4.02370734       0.00616100      -0.00362900      -0.00199100 
      46      -2.05953408       5.98057336       0.00036119       0.00719400      -0.00518100      -0.00157700 
      46       1.97932141       3.98106207      -2.01197776      -0.00294800      -0.00300600       0.00583300 
      46      -0.04943454       9.96018352      -6.03577492       0.00511600      -0.00383100      -0.00109100 
      46      -0.04969279       9.96028076      -2.01170639       0.00427400      -0.00344000      -0.00181200 
      46       3.98916271       7.96076947      -4.02404534       0.00475700      -0.00359600      -0.00218100 
      46      -4.04223172       3.99109151      -4.02371967      -0.00094000      -0.01012900       0.00992500 
      46      -4.04248996       3.99118875       0.00034885      -0.00075300       0.00060400      -0.00041100 
      46      -4.04274821       3.99128599       4.02441737      -0.00091600      -0.00267900      -0.00336500 
      46      -2.03239042       7.97079891      -6.03578725      -0.01154600      -0.01087100      -0.00063400 
      46      -2.03264867       7.97089615      -2.01171873      -0.00059200       0.00025100      -0.00022700 
      46      -2.03290692       7.97099338       2.01234979      -0.00088500       0.00054200       0.00090200 
      46       0.01854360       3.97412962       0.00404937       0.02549900       0.05968800      -0.02661200 
      46      -4.01594473       5.98167978      -2.01179367      -0.00391200       0.00330500       0.00253200 
      46      -4.01620297       5.98177701       2.01227486      -0.00389300       0.00402900       0.00240400 
      46       2.03249381       7.96197312      -2.01213167      -0.00435600       0.00219100       0.00253900 
      46      -2.00610343       9.96138717      -4.02386125      -0.00426400       0.00334400       0.00246000 
      46      -2.00636168       9.96148441       0.00020728      -0.00407500       0.00357900       0.00153700 
      47      -6.05773857       3.99251038      -2.01151705      -0.00116200       0.00014400       0.00062500 
      47      -6.05799682       3.99260762       2.01255148      -0.00191800      -0.00008800       0.00087100 
      47      -2.01914133       1.99309633       0.00021253      -0.01348400      -0.01115500      -0.00035900 
      47      -4.04789728       7.97221778      -4.02358463      -0.00082000      -0.00290600      -0.00425000 