  30
   1   1
     6.829395104037032    -0.017945876500228    -0.021737963538235
    -0.038909122905642     6.800295541448555     0.013459788909614
     0.004458503929464    -0.036638657883720     7.023708761605228
   1   2
    -0.892312974756981    -0.865724768398130     0.092718364219394
    -0.865274276271824    -0.862496793678020     0.069952505756113
    -0.088018481308792    -0.069989288188924     0.133101783431908
   1   3
    -0.791341253005506     0.863890326319105    -0.111049196188698
     0.868762811591061    -0.775339421384324     0.065619178971408
     0.105842149529126    -0.073084861566097     0.221155652253345
   1   4
    -0.085189850626974    -0.021452168847029    -0.002719224172150
    -0.020608634982404    -0.136764290964444     0.006707197127851
    -0.003392628979229     0.008510734147883    -0.011611477677406
   1   5
    -0.791462565465904     0.867990875978610     0.106532509284277
     0.864766158946822    -0.775157778545503    -0.075287205799142
    -0.111940938798093     0.067179827548884     0.220979991344637
   1   6
    -0.892322445957176    -0.866059035754054    -0.087062162497695
    -0.864873602058932    -0.862382626618159    -0.072024594487833
     0.092070315658790     0.071302699172948     0.133056342764879
   1   7
     0.077612071118495     0.001618573332598    -0.035398162253320
     0.002281841870880    -0.917517260610294     1.156379221966221
     0.011524689253078     1.261364463589157    -0.934650690055239
   1   8
    -0.985949995079164    -0.053667335193946    -1.111652245291642
    -0.061651410910811     0.042427588173293     0.008296653911778
    -1.208544601255991     0.043063528332425    -0.952947894582737
   1   9
    -0.983176501323180    -0.045199709299477     1.127470678078078
    -0.058922658461528     0.049287511861922    -0.009271535555661
     1.228394006378321    -0.037112601523074    -0.969233357056797
   1  10
     0.071050748185111    -0.003254788838467     0.029148378901058
    -0.004154262670528    -0.907578116452920    -1.156269660851271
    -0.030891892405862    -1.256569525320046    -0.931475515191040
   1  11
    -0.077644629045810     0.052568267878919     0.045191838661599
     0.067011447731075    -0.119676936640408    -0.013166382895844
    -0.058159250321537    -0.037200927193545    -0.112031331754662
   1  12
    -0.072596901612107     0.054656080954073    -0.040639867800782
     0.065351683482181    -0.125792478311593     0.015903879497040
     0.066401042279033     0.038205562353834    -0.119364922095951
   1  13
    -0.080832708496366    -0.007528384357453     0.013441240680772
    -0.007096222763523    -0.137942447015797     0.000362454674517
     0.012396752933149     0.002202923880933     0.152080919020288
   1  14
     0.033704113621675    -0.020546997120904    -0.104834168580595
    -0.019606735550720     0.010417170092637    -0.072127058266351
    -0.106110550114936    -0.070067007038262    -0.019283441135074
   1  15
     0.037101915792980     0.025250904862994     0.020327643276621
     0.026203014461463     0.085534771377362    -0.069361478438120
     0.019033589852412    -0.067137500214987    -0.153712162540273
   1  16
     0.052904627388190     0.010146909512454     0.011736895858320
     0.010932798374606     0.062708998827343    -0.002399958649512
     0.010373037231189    -0.000261310888443     0.174720638843558
   1  17
     0.065216472160602     0.027481010777318    -0.030735764990344
     0.028281202587364     0.073031931394696     0.072214089042388
    -0.032107058584857     0.073828899890176    -0.150030543263405
   1  18
     0.003609577458304    -0.021342344662697     0.090718117757571
    -0.020988171112071     0.017365737195867     0.065489113122938
     0.089651334237433     0.067383535295648    -0.036095579704327
   1  19
    -0.022631348222416     0.004979214442405    -0.028879945258189
     0.000655768432388    -0.024620179652182     0.007796636858119
    -0.027705692848049    -0.007026998331885    -0.032642499167418
   1  20
     0.009473850021367    -0.001299999477506    -0.001406140759726
    -0.002447652108166     0.023398702385934     0.002498287609664
    -0.006061443017680     0.007824830157847     0.030374919667423
   1  21
    -0.006447380243157    -0.003900748932592     0.018506265296915
     0.000628415635874    -0.005996907229253    -0.020614402640751
     0.016150470464185    -0.015606923158938    -0.015905421824009
   1  22
    -0.012739839865864    -0.001140837686785    -0.006712304750725
     0.005798049929867    -0.024262745950118    -0.006788530230243
     0.002193966481425     0.009812585970608    -0.020286247952555
   1  23
     0.020638892206810     0.004723387835984    -0.003169244705288
     0.005693418571394     0.023744329278610    -0.003903384772644
    -0.022839376188436    -0.006678111102523    -0.014757262053833
   1  24
     0.003113458424755     0.006025193067833     0.025742301428276
     0.003905887068340     0.000632470515520     0.018671461887642
     0.034110950980766     0.018000212760516    -0.002014888895210
   1  25
    -0.023660221527469     0.018130815728147     0.000995795493533
     0.012017532975111    -0.031196814379430    -0.002363980725948
     0.021036436840891     0.006767281058510     0.000721492858829
   1  26
     0.122875778350821     0.000409850788530    -0.004391164505670
     0.002034719905059    -0.839859558638331    -1.057348617113489
     0.005865087894583    -0.907667666266012    -0.909815902949071
   1  27
    -0.857449908413987    -0.013400255815927     1.043428002087454
    -0.006738032423801     0.114558081850833    -0.003920834329424
     0.903092459791592     0.003436422969836    -0.901905012486370
   1  28
    -0.849198614317208    -0.015728738787610    -1.038093519067578
    -0.007379712661730     0.112975908118419     0.000617735759954
    -0.895584092711434    -0.003207728316559    -0.893563079388683
   1  29
     0.124665515038455     0.002192084157055     0.008963254998713
     0.002991869739086    -0.840546378483404     1.056711807568070
    -0.007664136681023     0.910056851411632    -0.913028607168467
   1  30
    -0.026403791958415     0.018127606757186    -0.006439379193760
     0.011331873531219    -0.029248507987937     0.004165112171176
    -0.023576520929551    -0.000692046535250     0.004458332681238
   2   1
    -0.892322445957176    -0.866059035754054    -0.087062162497695
    -0.864873602058932    -0.862382626618159    -0.072024594487833
     0.092070315658790     0.071302699172947     0.133056342764879
   2   2
     6.829395104037032    -0.017945876500228    -0.021737963538235
    -0.038909122905642     6.800295541448552     0.013459788909614
     0.004458503929464    -0.036638657883720     7.023708761605228
   2   3
    -0.892312974756981    -0.865724768398130     0.092718364219394
    -0.865274276271824    -0.862496793678020     0.069952505756113
    -0.088018481308792    -0.069989288188924     0.133101783431908
   2   4
    -0.791341253005505     0.863890326319104    -0.111049196188698
     0.868762811591061    -0.775339421384324     0.065619178971408
     0.105842149529126    -0.073084861566097     0.221155652253345
   2   5
    -0.085189850626974    -0.021452168847029    -0.002719224172150
    -0.020608634982404    -0.136764290964444     0.006707197127851
    -0.003392628979229     0.008510734147883    -0.011611477677406
   2   6
    -0.791462565465904     0.867990875978609     0.106532509284277
     0.864766158946822    -0.775157778545503    -0.075287205799142
    -0.111940938798093     0.067179827548884     0.220979991344637
   2   7
    -0.072596901612107     0.054656080954073    -0.040639867800782
     0.065351683482181    -0.125792478311593     0.015903879497040
     0.066401042279033     0.038205562353834    -0.119364922095951
   2   8
     0.077612071118495     0.001618573332598    -0.035398162253319
     0.002281841870880    -0.917517260610294     1.156379221966221
     0.011524689253078     1.261364463589156    -0.934650690055239
   2   9
    -0.985949995079164    -0.053667335193946    -1.111652245291642
    -0.061651410910811     0.042427588173293     0.008296653911778
    -1.208544601255991     0.043063528332425    -0.952947894582737
   2  10
    -0.983176501323180    -0.045199709299477     1.127470678078078
    -0.058922658461528     0.049287511861922    -0.009271535555661
     1.228394006378321    -0.037112601523074    -0.969233357056796
   2  11
     0.071050748185111    -0.003254788838467     0.029148378901058
    -0.004154262670528    -0.907578116452919    -1.156269660851271
    -0.030891892405862    -1.256569525320045    -0.931475515191040
   2  12
    -0.077644629045810     0.052568267878919     0.045191838661599
     0.067011447731075    -0.119676936640408    -0.013166382895844
    -0.058159250321537    -0.037200927193545    -0.112031331754662
   2  13
     0.003609577458304    -0.021342344662697     0.090718117757571
    -0.020988171112071     0.017365737195867     0.065489113122938
     0.089651334237433     0.067383535295648    -0.036095579704327
   2  14
    -0.080832708496366    -0.007528384357453     0.013441240680772
    -0.007096222763523    -0.137942447015797     0.000362454674517
     0.012396752933149     0.002202923880933     0.152080919020288
   2  15
     0.033704113621675    -0.020546997120904    -0.104834168580595
    -0.019606735550720     0.010417170092637    -0.072127058266351
    -0.106110550114936    -0.070067007038262    -0.019283441135074
   2  16
     0.037101915792980     0.025250904862994     0.020327643276621
     0.026203014461463     0.085534771377362    -0.069361478438120
     0.019033589852412    -0.067137500214987    -0.153712162540273
   2  17
     0.052904627388190     0.010146909512454     0.011736895858320
     0.010932798374606     0.062708998827343    -0.002399958649512
     0.010373037231189    -0.000261310888443     0.174720638843558
   2  18
     0.065216472160602     0.027481010777318    -0.030735764990344
     0.028281202587364     0.073031931394696     0.072214089042388
    -0.032107058584857     0.073828899890176    -0.150030543263405
   2  19
     0.003113458424755     0.006025193067833     0.025742301428276
     0.003905887068340     0.000632470515520     0.018671461887642
     0.034110950980766     0.018000212760516    -0.002014888895210
   2  20
    -0.022631348222416     0.004979214442405    -0.028879945258189
     0.000655768432388    -0.024620179652182     0.007796636858119
    -0.027705692848049    -0.007026998331885    -0.032642499167418
   2  21
     0.009473850021367    -0.001299999477506    -0.001406140759726
    -0.002447652108166     0.023398702385934     0.002498287609664
    -0.006061443017680     0.007824830157847     0.030374919667423
   2  22
    -0.006447380243157    -0.003900748932592     0.018506265296915
     0.000628415635874    -0.005996907229253    -0.020614402640751
     0.016150470464185    -0.015606923158938    -0.015905421824009
   2  23
    -0.012739839865864    -0.001140837686785    -0.006712304750725
     0.005798049929867    -0.024262745950118    -0.006788530230243
     0.002193966481425     0.009812585970608    -0.020286247952555
   2  24
     0.020638892206810     0.004723387835984    -0.003169244705288
     0.005693418571394     0.023744329278610    -0.003903384772644
    -0.022839376188436    -0.006678111102523    -0.014757262053833
   2  25
    -0.026403791958415     0.018127606757186    -0.006439379193760
     0.011331873531219    -0.029248507987937     0.004165112171176
    -0.023576520929551    -0.000692046535250     0.004458332681238
   2  26
    -0.023660221527469     0.018130815728147     0.000995795493533
     0.012017532975111    -0.031196814379430    -0.002363980725948
     0.021036436840891     0.006767281058510     0.000721492858829
   2  27
     0.122875778350821     0.000409850788530    -0.004391164505670
     0.002034719905059    -0.839859558638330    -1.057348617113489
     0.005865087894583    -0.907667666266012    -0.909815902949072
   2  28
    -0.857449908413987    -0.013400255815927     1.043428002087454
    -0.006738032423801     0.114558081850833    -0.003920834329424
     0.903092459791592     0.003436422969836    -0.901905012486370
   2  29
    -0.849198614317208    -0.015728738787610    -1.038093519067578
    -0.007379712661730     0.112975908118419     0.000617735759954
    -0.895584092711434    -0.003207728316559    -0.893563079388683
   2  30
     0.124665515038455     0.002192084157054     0.008963254998713
     0.002991869739086    -0.840546378483403     1.056711807568070
    -0.007664136681023     0.910056851411631    -0.913028607168467
   3   1
    -0.791462565465904     0.867990875978609     0.106532509284277
     0.864766158946822    -0.775157778545503    -0.075287205799142
    -0.111940938798093     0.067179827548884     0.220979991344637
   3   2
    -0.892322445957176    -0.866059035754054    -0.087062162497695
    -0.864873602058932    -0.862382626618159    -0.072024594487833
     0.092070315658790     0.071302699172947     0.133056342764879
   3   3
     6.829395104037032    -0.017945876500228    -0.021737963538235
    -0.038909122905642     6.800295541448552     0.013459788909614
     0.004458503929464    -0.036638657883720     7.023708761605228
   3   4
    -0.892312974756981    -0.865724768398130     0.092718364219394
    -0.865274276271824    -0.862496793678020     0.069952505756113
    -0.088018481308792    -0.069989288188924     0.133101783431908
   3   5
    -0.791341253005505     0.863890326319104    -0.111049196188698
     0.868762811591061    -0.775339421384324     0.065619178971408
     0.105842149529126    -0.073084861566097     0.221155652253345
   3   6
    -0.085189850626974    -0.021452168847029    -0.002719224172150
    -0.020608634982404    -0.136764290964444     0.006707197127851
    -0.003392628979229     0.008510734147883    -0.011611477677406
   3   7
    -0.077644629045810     0.052568267878919     0.045191838661599
     0.067011447731075    -0.119676936640408    -0.013166382895844
    -0.058159250321537    -0.037200927193545    -0.112031331754662
   3   8
    -0.072596901612107     0.054656080954073    -0.040639867800782
     0.065351683482181    -0.125792478311593     0.015903879497040
     0.066401042279033     0.038205562353834    -0.119364922095951
   3   9
     0.077612071118495     0.001618573332598    -0.035398162253319
     0.002281841870880    -0.917517260610294     1.156379221966221
     0.011524689253078     1.261364463589156    -0.934650690055239
   3  10
    -0.985949995079164    -0.053667335193946    -1.111652245291642
    -0.061651410910811     0.042427588173293     0.008296653911778
    -1.208544601255991     0.043063528332425    -0.952947894582737
   3  11
    -0.983176501323180    -0.045199709299477     1.127470678078078
    -0.058922658461528     0.049287511861922    -0.009271535555661
     1.228394006378321    -0.037112601523074    -0.969233357056796
   3  12
     0.071050748185111    -0.003254788838467     0.029148378901058
    -0.004154262670528    -0.907578116452919    -1.156269660851271
    -0.030891892405862    -1.256569525320045    -0.931475515191040
   3  13
     0.065216472160602     0.027481010777318    -0.030735764990344
     0.028281202587364     0.073031931394696     0.072214089042388
    -0.032107058584857     0.073828899890176    -0.150030543263405
   3  14
     0.003609577458304    -0.021342344662697     0.090718117757571
    -0.020988171112071     0.017365737195867     0.065489113122938
     0.089651334237433     0.067383535295648    -0.036095579704327
   3  15
    -0.080832708496366    -0.007528384357453     0.013441240680772
    -0.007096222763523    -0.137942447015797     0.000362454674517
     0.012396752933149     0.002202923880933     0.152080919020288
   3  16
     0.033704113621675    -0.020546997120904    -0.104834168580595
    -0.019606735550720     0.010417170092637    -0.072127058266351
    -0.106110550114936    -0.070067007038262    -0.019283441135074
   3  17
     0.037101915792980     0.025250904862994     0.020327643276621
     0.026203014461463     0.085534771377362    -0.069361478438120
     0.019033589852412    -0.067137500214987    -0.153712162540273
   3  18
     0.052904627388190     0.010146909512454     0.011736895858320
     0.010932798374606     0.062708998827343    -0.002399958649512
     0.010373037231189    -0.000261310888443     0.174720638843558
   3  19
     0.020638892206810     0.004723387835984    -0.003169244705288
     0.005693418571394     0.023744329278610    -0.003903384772644
    -0.022839376188436    -0.006678111102523    -0.014757262053833
   3  20
     0.003113458424755     0.006025193067833     0.025742301428276
     0.003905887068340     0.000632470515520     0.018671461887642
     0.034110950980766     0.018000212760516    -0.002014888895210
   3  21
    -0.022631348222416     0.004979214442405    -0.028879945258189
     0.000655768432388    -0.024620179652182     0.007796636858119
    -0.027705692848049    -0.007026998331885    -0.032642499167418
   3  22
     0.009473850021367    -0.001299999477506    -0.001406140759726
    -0.002447652108166     0.023398702385934     0.002498287609664
    -0.006061443017680     0.007824830157847     0.030374919667423
   3  23
    -0.006447380243157    -0.003900748932592     0.018506265296915
     0.000628415635874    -0.005996907229253    -0.020614402640751
     0.016150470464185    -0.015606923158938    -0.015905421824009
   3  24
    -0.012739839865864    -0.001140837686785    -0.006712304750725
     0.005798049929867    -0.024262745950118    -0.006788530230243
     0.002193966481425     0.009812585970608    -0.020286247952555
   3  25
     0.124665515038455     0.002192084157054     0.008963254998713
     0.002991869739086    -0.840546378483403     1.056711807568070
    -0.007664136681023     0.910056851411631    -0.913028607168467
   3  26
    -0.026403791958415     0.018127606757186    -0.006439379193760
     0.011331873531219    -0.029248507987937     0.004165112171176
    -0.023576520929551    -0.000692046535250     0.004458332681238
   3  27
    -0.023660221527469     0.018130815728147     0.000995795493533
     0.012017532975111    -0.031196814379430    -0.002363980725948
     0.021036436840891     0.006767281058510     0.000721492858829
   3  28
     0.122875778350821     0.000409850788530    -0.004391164505670
     0.002034719905059    -0.839859558638330    -1.057348617113489
     0.005865087894583    -0.907667666266012    -0.909815902949072
   3  29
    -0.857449908413987    -0.013400255815927     1.043428002087454
    -0.006738032423801     0.114558081850833    -0.003920834329424
     0.903092459791592     0.003436422969836    -0.901905012486370
   3  30
    -0.849198614317208    -0.015728738787610    -1.038093519067578
    -0.007379712661730     0.112975908118419     0.000617735759954
    -0.895584092711434    -0.003207728316559    -0.893563079388683
   4   1
    -0.085189850626974    -0.021452168847029    -0.002719224172150
    -0.020608634982404    -0.136764290964444     0.006707197127851
    -0.003392628979229     0.008510734147883    -0.011611477677406
   4   2
    -0.791462565465904     0.867990875978609     0.106532509284277
     0.864766158946822    -0.775157778545503    -0.075287205799142
    -0.111940938798093     0.067179827548884     0.220979991344637
   4   3
    -0.892322445957176    -0.866059035754054    -0.087062162497695
    -0.864873602058932    -0.862382626618159    -0.072024594487833
     0.092070315658790     0.071302699172947     0.133056342764879
   4   4
     6.829395104037032    -0.017945876500228    -0.021737963538235
    -0.038909122905642     6.800295541448552     0.013459788909614
     0.004458503929464    -0.036638657883720     7.023708761605228
   4   5
    -0.892312974756981    -0.865724768398130     0.092718364219394
    -0.865274276271824    -0.862496793678020     0.069952505756113
    -0.088018481308792    -0.069989288188924     0.133101783431908
   4   6
    -0.791341253005505     0.863890326319104    -0.111049196188698
     0.868762811591061    -0.775339421384324     0.065619178971408
     0.105842149529126    -0.073084861566097     0.221155652253345
   4   7
     0.071050748185111    -0.003254788838467     0.029148378901058
    -0.004154262670528    -0.907578116452919    -1.156269660851271
    -0.030891892405862    -1.256569525320045    -0.931475515191040
   4   8
    -0.077644629045810     0.052568267878919     0.045191838661599
     0.067011447731075    -0.119676936640408    -0.013166382895844
    -0.058159250321537    -0.037200927193545    -0.112031331754662
   4   9
    -0.072596901612107     0.054656080954073    -0.040639867800782
     0.065351683482181    -0.125792478311593     0.015903879497040
     0.066401042279033     0.038205562353834    -0.119364922095951
   4  10
     0.077612071118495     0.001618573332598    -0.035398162253319
     0.002281841870880    -0.917517260610294     1.156379221966221
     0.011524689253078     1.261364463589156    -0.934650690055239
   4  11
    -0.985949995079164    -0.053667335193946    -1.111652245291642
    -0.061651410910811     0.042427588173293     0.008296653911778
    -1.208544601255991     0.043063528332425    -0.952947894582737
   4  12
    -0.983176501323180    -0.045199709299477     1.127470678078078
    -0.058922658461528     0.049287511861922    -0.009271535555661
     1.228394006378321    -0.037112601523074    -0.969233357056796
   4  13
     0.052904627388190     0.010146909512454     0.011736895858320
     0.010932798374606     0.062708998827343    -0.002399958649512
     0.010373037231189    -0.000261310888443     0.174720638843558
   4  14
     0.065216472160602     0.027481010777318    -0.030735764990344
     0.028281202587364     0.073031931394696     0.072214089042388
    -0.032107058584857     0.073828899890176    -0.150030543263405
   4  15
     0.003609577458304    -0.021342344662697     0.090718117757571
    -0.020988171112071     0.017365737195867     0.065489113122938
     0.089651334237433     0.067383535295648    -0.036095579704327
   4  16
    -0.080832708496366    -0.007528384357453     0.013441240680772
    -0.007096222763523    -0.137942447015797     0.000362454674517
     0.012396752933149     0.002202923880933     0.152080919020288
   4  17
     0.033704113621675    -0.020546997120904    -0.104834168580595
    -0.019606735550720     0.010417170092637    -0.072127058266351
    -0.106110550114936    -0.070067007038262    -0.019283441135074
   4  18
     0.037101915792980     0.025250904862994     0.020327643276621
     0.026203014461463     0.085534771377362    -0.069361478438120
     0.019033589852412    -0.067137500214987    -0.153712162540273
   4  19
    -0.012739839865864    -0.001140837686785    -0.006712304750725
     0.005798049929867    -0.024262745950118    -0.006788530230243
     0.002193966481425     0.009812585970608    -0.020286247952555
   4  20
     0.020638892206810     0.004723387835984    -0.003169244705288
     0.005693418571394     0.023744329278610    -0.003903384772644
    -0.022839376188436    -0.006678111102523    -0.014757262053833
   4  21
     0.003113458424755     0.006025193067833     0.025742301428276
     0.003905887068340     0.000632470515520     0.018671461887642
     0.034110950980766     0.018000212760516    -0.002014888895210
   4  22
    -0.022631348222416     0.004979214442405    -0.028879945258189
     0.000655768432388    -0.024620179652182     0.007796636858119
    -0.027705692848049    -0.007026998331885    -0.032642499167418
   4  23
     0.009473850021367    -0.001299999477506    -0.001406140759726
    -0.002447652108166     0.023398702385934     0.002498287609664
    -0.006061443017680     0.007824830157847     0.030374919667423
   4  24
    -0.006447380243157    -0.003900748932592     0.018506265296915
     0.000628415635874    -0.005996907229253    -0.020614402640751
     0.016150470464185    -0.015606923158938    -0.015905421824009
   4  25
    -0.849198614317208    -0.015728738787610    -1.038093519067578
    -0.007379712661730     0.112975908118419     0.000617735759954
    -0.895584092711434    -0.003207728316559    -0.893563079388683
   4  26
     0.124665515038455     0.002192084157054     0.008963254998713
     0.002991869739086    -0.840546378483403     1.056711807568070
    -0.007664136681023     0.910056851411631    -0.913028607168467
   4  27
    -0.026403791958415     0.018127606757186    -0.006439379193760
     0.011331873531219    -0.029248507987937     0.004165112171176
    -0.023576520929551    -0.000692046535250     0.004458332681238
   4  28
    -0.023660221527469     0.018130815728147     0.000995795493533
     0.012017532975111    -0.031196814379430    -0.002363980725948
     0.021036436840891     0.006767281058510     0.000721492858829
   4  29
     0.122875778350821     0.000409850788530    -0.004391164505670
     0.002034719905059    -0.839859558638330    -1.057348617113489
     0.005865087894583    -0.907667666266012    -0.909815902949072
   4  30
    -0.857449908413987    -0.013400255815927     1.043428002087454
    -0.006738032423801     0.114558081850833    -0.003920834329424
     0.903092459791592     0.003436422969836    -0.901905012486370
   5   1
    -0.791341253005505     0.863890326319104    -0.111049196188698
     0.868762811591061    -0.775339421384324     0.065619178971408
     0.105842149529126    -0.073084861566097     0.221155652253345
   5   2
    -0.085189850626974    -0.021452168847029    -0.002719224172150
    -0.020608634982404    -0.136764290964444     0.006707197127851
    -0.003392628979229     0.008510734147883    -0.011611477677406
   5   3
    -0.791462565465904     0.867990875978609     0.106532509284277
     0.864766158946822    -0.775157778545503    -0.075287205799142
    -0.111940938798093     0.067179827548884     0.220979991344637
   5   4
    -0.892322445957176    -0.866059035754054    -0.087062162497695
    -0.864873602058932    -0.862382626618159    -0.072024594487833
     0.092070315658790     0.071302699172947     0.133056342764879
   5   5
     6.829395104037032    -0.017945876500228    -0.021737963538235
    -0.038909122905642     6.800295541448552     0.013459788909614
     0.004458503929464    -0.036638657883720     7.023708761605228
   5   6
    -0.892312974756981    -0.865724768398130     0.092718364219394
    -0.865274276271824    -0.862496793678020     0.069952505756113
    -0.088018481308792    -0.069989288188924     0.133101783431908
   5   7
    -0.983176501323180    -0.045199709299477     1.127470678078078
    -0.058922658461528     0.049287511861922    -0.009271535555661
     1.228394006378321    -0.037112601523074    -0.969233357056796
   5   8
     0.071050748185111    -0.003254788838467     0.029148378901058
    -0.004154262670528    -0.907578116452919    -1.156269660851271
    -0.030891892405862    -1.256569525320045    -0.931475515191040
   5   9
    -0.077644629045810     0.052568267878919     0.045191838661599
     0.067011447731075    -0.119676936640408    -0.013166382895844
    -0.058159250321537    -0.037200927193545    -0.112031331754662
   5  10
    -0.072596901612107     0.054656080954073    -0.040639867800782
     0.065351683482181    -0.125792478311593     0.015903879497040
     0.066401042279033     0.038205562353834    -0.119364922095951
   5  11
     0.077612071118495     0.001618573332598    -0.035398162253319
     0.002281841870880    -0.917517260610294     1.156379221966221
     0.011524689253078     1.261364463589156    -0.934650690055239
   5  12
    -0.985949995079164    -0.053667335193946    -1.111652245291642
    -0.061651410910811     0.042427588173293     0.008296653911778
    -1.208544601255991     0.043063528332425    -0.952947894582737
   5  13
     0.037101915792980     0.025250904862994     0.020327643276621
     0.026203014461463     0.085534771377362    -0.069361478438120
     0.019033589852412    -0.067137500214987    -0.153712162540273
   5  14
     0.052904627388190     0.010146909512454     0.011736895858320
     0.010932798374606     0.062708998827343    -0.002399958649512
     0.010373037231189    -0.000261310888443     0.174720638843558
   5  15
     0.065216472160602     0.027481010777318    -0.030735764990344
     0.028281202587364     0.073031931394696     0.072214089042388
    -0.032107058584857     0.073828899890176    -0.150030543263405
   5  16
     0.003609577458304    -0.021342344662697     0.090718117757571
    -0.020988171112071     0.017365737195867     0.065489113122938
     0.089651334237433     0.067383535295648    -0.036095579704327
   5  17
    -0.080832708496366    -0.007528384357453     0.013441240680772
    -0.007096222763523    -0.137942447015797     0.000362454674517
     0.012396752933149     0.002202923880933     0.152080919020288
   5  18
     0.033704113621675    -0.020546997120904    -0.104834168580595
    -0.019606735550720     0.010417170092637    -0.072127058266351
    -0.106110550114936    -0.070067007038262    -0.019283441135074
   5  19
    -0.006447380243157    -0.003900748932592     0.018506265296915
     0.000628415635874    -0.005996907229253    -0.020614402640751
     0.016150470464185    -0.015606923158938    -0.015905421824009
   5  20
    -0.012739839865864    -0.001140837686785    -0.006712304750725
     0.005798049929867    -0.024262745950118    -0.006788530230243
     0.002193966481425     0.009812585970608    -0.020286247952555
   5  21
     0.020638892206810     0.004723387835984    -0.003169244705288
     0.005693418571394     0.023744329278610    -0.003903384772644
    -0.022839376188436    -0.006678111102523    -0.014757262053833
   5  22
     0.003113458424755     0.006025193067833     0.025742301428276
     0.003905887068340     0.000632470515520     0.018671461887642
     0.034110950980766     0.018000212760516    -0.002014888895210
   5  23
    -0.022631348222416     0.004979214442405    -0.028879945258189
     0.000655768432388    -0.024620179652182     0.007796636858119