30
Lattice="-5.976482952590345 -1.9915733717567636 -0.001182854355787 4.3875566687e-06 -7.966306187289448 0.0002067660631844 -3.9822219334280318 1.9913658123689277 10.18055123478547" Properties=Z:I:1:pos:R:3:vasp_force:R:3 uuid=81eb3023-8cbe-419c-94ca-a69c18285dd9 vasp_virial="0.032249086707256465 0.02416487996349163 -0.28978795139391417 0.02416487996349163 0.024642913146693295 -0.058202052818040396 -0.28978795139391417 -0.058202052818040396 -0.029214483651868694" vasp_energy=-127.2888797 pbc="T T T"
      46      -5.98635382      -5.97785448       0.07324033       0.06401100       0.02231000       0.00546800 
      46      -3.98470645      -3.98311756       0.07360203      -0.01249200      -0.00958800       0.00650400 
      46      -1.99254620      -1.99154207       0.07396186      -0.00636100       0.00688900       0.00454800 
      46      -5.97686890      -1.99153995       0.07313883      -0.00242900       0.00043400       0.00539000 
      46      -3.98470426      -7.96627065       0.07370542      -0.00628400       0.00677500       0.00616900 
      46      -1.99254400      -5.97469516       0.07406524      -0.01301600      -0.01016000       0.00435600 
      46      -5.97606675      -7.96619225       2.03525338       0.00056200      -0.00395300       0.00289200 
      46      -3.98390650      -5.97461676       2.03561320      -0.00963400      -0.00147900      -0.01075300 
      46      -1.99174625      -3.98304127       2.03597302      -0.00982100      -0.00133100       0.01043200 
      46      -5.97606895      -3.98303916       2.03514999       0.00044600      -0.00399500      -0.00380800 
      46      -3.98390869      -1.99146367       2.03550982      -0.00072300      -0.00095600      -0.00001600 
      46      -1.99174405      -7.96619437       2.03607641      -0.00067700      -0.00096600      -0.00073800 
      46      -5.97524574      -5.97505805       3.99718668       0.00087100      -0.00007800      -0.00497600 
      46      -3.98308548      -3.98348256       3.99754650       0.00193000       0.00027800      -0.00633300 
      46      -1.99092523      -1.99190707       3.99790633       0.00209800       0.00094500      -0.00512200 
      46      -5.97524793      -1.99190496       3.99708330       0.00219500       0.00072600      -0.00499600 
      46      -3.98308329      -7.96663566       3.99764989       0.00236500       0.00091900      -0.00516600 
      46      -1.99092304      -5.97506017       3.99800971       0.00161700       0.00027300      -0.00404300 
      47      -5.97524494      -7.96655334       6.04570616       0.00035100      -0.00061800       0.00009100 
      47      -3.98308469      -5.97497785       6.04606598       0.00064700      -0.00052500       0.00033400 
      47      -7.96740739      -5.97497573       6.04524295       0.00050600      -0.00064200       0.00045100 
      47      -5.97524713      -3.98340024       6.04560277       0.00046100      -0.00067200       0.00025200 
      47      -3.98308688      -1.99182476       6.04596260       0.00077900      -0.00046600       0.00030100 
      47      -7.96740958      -1.99182264       6.04513957       0.00060500      -0.00052700       0.00064300 
      47      -5.97477374      -5.97471444       8.20616952      -0.00080700       0.00025500      -0.00025800 
      47      -3.98261349      -3.98313895       8.20652935       0.00056500      -0.00247300      -0.00365400 
      47      -7.96693619      -3.98313683       8.20570631      -0.00866700       0.00040200       0.00945700 
      47      -5.97477593      -1.99156135       8.20606614      -0.00881400       0.00040700      -0.01027500 
      47      -3.98261568       0.00001414       8.20642596       0.00055600      -0.00244800       0.00315700 
      47      -7.96693838       0.00001626       8.20560293      -0.00083800       0.00026400      -0.00030700 
30
Lattice="-5.976482952590345 -1.9915733717567636 -0.001182854355787 4.3875566687e-06 -7.966306187289448 0.0002067660631844 -3.9822219334280318 1.9913658123689277 10.18055123478547" Properties=Z:I:1:pos:R:3:vasp_force:R:3 uuid=2fa9cd42-28b8-4deb-953a-badd41aa93c0 vasp_virial="0.030842216895935113 0.023765510468664926 -0.28364915817419156 0.023765510468664926 0.023450855715165104 -0.05592080585516663 -0.28364915817419156 -0.05592080585516663 -0.028936135216080384" vasp_energy=-127.28881343 pbc="T T T"
      46      -5.97686670      -5.97469305       0.07324221      -0.00153200       0.01038000      -0.00741200 
      46      -3.98470645      -3.98311756       0.07360203      -0.00205400       0.00232800       0.00502200 
      46      -1.99254620      -1.99154207       0.07396186      -0.00203800       0.00227000       0.00577900 
      46      -5.97686890      -1.99153995       0.07313883      -0.00147000       0.01001200       0.01777300 
      46      -3.98470426      -7.96627065       0.07370542      -0.00109300       0.00057800       0.00579500 
      46      -1.99254400      -5.97469516       0.07406524      -0.00093300       0.00064200       0.00499100 
      46      -5.97606676      -7.95619225       2.03525312      -0.00052300      -0.07546600       0.00001300 
      46      -3.98390650      -5.97461676       2.03561320       0.00906900       0.00704600      -0.00033000 
      46      -1.99174625      -3.98304127       2.03597302      -0.00931600       0.00727200      -0.00044200 
      46      -5.97606895      -3.98303916       2.03514999       0.00002200       0.00172700      -0.00051400 
      46      -3.98390869      -1.99146367       2.03550982      -0.00892800       0.00698600      -0.00044000 
      46      -1.99174405      -7.96619437       2.03607641       0.00866600       0.00676900      -0.00033000 
      46      -5.97524574      -5.97505805       3.99718668       0.00172800       0.00965200       0.00768500 
      46      -3.98308548      -3.98348256       3.99754650       0.00117900       0.00162800      -0.00472500 
      46      -1.99092523      -1.99190707       3.99790633       0.00115600       0.00169600      -0.00548200 
      46      -5.97524793      -1.99190496       3.99708330       0.00170000       0.00946200      -0.01749300 
      46      -3.98308329      -7.96663566       3.99764989       0.00220300       0.00001200      -0.00554900 
      46      -1.99092304      -5.97506017       3.99800971       0.00219700      -0.00006500      -0.00474500 
      47      -5.97524494      -7.96655334       6.04570616       0.00058800      -0.00097400       0.00030300 
      47      -3.98308469      -5.97497785       6.04606598       0.00059000      -0.00057700       0.00029100 
      47      -7.96740739      -5.97497573       6.04524295       0.00058300      -0.00062500       0.00033500 
      47      -5.97524713      -3.98340024       6.04560277       0.00060000      -0.00043600       0.00038700 
      47      -3.98308688      -1.99182476       6.04596260       0.00057900      -0.00047400       0.00037600 
      47      -7.96740958      -1.99182264       6.04513957       0.00060200      -0.00068700       0.00033200 
      47      -5.97477374      -5.97471444       8.20616952      -0.00059900       0.00019300      -0.00031700 
      47      -3.98261349      -3.98313895       8.20652935      -0.00059700      -0.00020400      -0.00030000 
      47      -7.96693619      -3.98313683       8.20570631      -0.00058000       0.00008500      -0.00027600 
      47      -5.97477593      -1.99156135       8.20606614      -0.00061300       0.00029500      -0.00023400 
      47      -3.98261568       0.00001414       8.20642596      -0.00058500       0.00033400      -0.00022100 
      47      -7.96693838       0.00001626       8.20560293      -0.00060100       0.00014300      -0.00027300 
30
Lattice="-5.976482952590345 -1.9915733717567636 -0.001182854355787 4.3875566687e-06 -7.966306187289448 0.0002067660631844 -3.9822219334280318 1.9913658123689277 10.18055123478547" Properties=Z:I:1:pos:R:3:vasp_force:R:3 uuid=f17e1a09-cd13-457b-91c5-66e07f5e7dad vasp_virial="0.03118712691419454 0.023133175435189314 -0.2834434223738263 0.023133175435189314 0.024497687875847222 -0.055448823724916885 -0.2834434223738263 -0.055448823724916885 -0.02869711862447955" vasp_energy=-127.28880526 pbc="T T T"
      46      -5.97686670      -5.97469305       0.07324221      -0.00092900      -0.00778600       0.01166000 
      46      -3.98470645      -3.98311756       0.07360203      -0.00150200       0.00135000       0.00663000 
      46      -1.99254620      -1.99154207       0.07396186      -0.00229600       0.00160800       0.00625800 
      46      -5.97686890      -1.99153995       0.07313883      -0.00153700       0.01300300       0.01588100 
      46      -3.98470426      -7.96627065       0.07370542      -0.01498500       0.00082000       0.01848000 
      46      -1.99254400      -5.97469516       0.07406524       0.00516800       0.00067200       0.00967400 
      46      -5.97965060      -7.96440010       2.04441548       0.02633000      -0.01371600      -0.07184500 
      46      -3.98390650      -5.97461676       2.03561320      -0.00196900      -0.00283200      -0.00090600 
      46      -1.99174625      -3.98304127       2.03597302      -0.00472500       0.00359300      -0.00248000 
      46      -5.97606895      -3.98303916       2.03514999       0.00001200      -0.00075400      -0.00081500 
      46      -3.98390869      -1.99146367       2.03550982      -0.00464000       0.00351900      -0.00248400 
      46      -1.99174405      -7.96619437       2.03607641      -0.00198500      -0.00282600      -0.00091500 
      46      -5.97524574      -5.97505805       3.99718668       0.00171200       0.01286000       0.00574400 
      46      -3.98308548      -3.98348256       3.99754650       0.00090600       0.00097700      -0.00423500 
      46      -1.99092523      -1.99190707       3.99790633       0.00171300       0.00071500      -0.00384900 
      46      -5.97524793      -1.99190496       3.99708330       0.00231200      -0.00864600       0.00126500 
      46      -3.98308329      -7.96663566       3.99764989       0.00851400       0.00001000      -0.00077500 
      46      -1.99092304      -5.97506017       3.99800971      -0.01237300       0.00017600       0.00847100 
      47      -5.97524494      -7.96655334       6.04570616       0.00076900      -0.00068900       0.00084100 
      47      -3.98308469      -5.97497785       6.04606598       0.00031000      -0.00062600       0.00084500 
      47      -7.96740739      -5.97497573       6.04524295       0.00064700      -0.00052000       0.00049800 
      47      -5.97524713      -3.98340024       6.04560277       0.00068100      -0.00054000       0.00052100 
      47      -3.98308688      -1.99182476       6.04596260       0.00056500      -0.00059000       0.00072900 
      47      -7.96740958      -1.99182264       6.04513957       0.00072200      -0.00071400       0.00051500 
      47      -5.97477374      -5.97471444       8.20616952      -0.00087000       0.00014200       0.00023200 
      47      -3.98261349      -3.98313895       8.20652935      -0.00042200       0.00008500       0.00024200 
      47      -7.96693619      -3.98313683       8.20570631      -0.00046100       0.00006100      -0.00009400 
      47      -5.97477593      -1.99156135       8.20606614      -0.00062500       0.00018000       0.00011900 
      47      -3.98261568       0.00001414       8.20642596      -0.00050500       0.00022400      -0.00008900 
      47      -7.96693838       0.00001626       8.20560293      -0.00053600       0.00024300      -0.00012000 
30
Lattice="-5.976482952590345 -1.9915733717567636 -0.001182854355787 4.3875566687e-06 -7.966306187289448 0.0002067660631844 -3.9822219334280318 1.9913658123689277 10.18055123478547" Properties=Z:I:1:pos:R:3:vasp_force:R:3 uuid=03d024fc-aae4-4fa4-b5b0-75e7ab09ced2 vasp_virial="0.031674236676824084 0.022900209896540402 -0.28377017923322995 0.022900209896540402 0.024788138417539372 -0.055572870310431254 -0.28377017923322995 -0.055572870310431254 -0.0295382149847964" vasp_energy=-127.28880693 pbc="T T T"
      46      -5.97686670      -5.97469305       0.07324221      -0.00215600       0.01013700      -0.00103200 
      46      -3.98470645      -3.98311756       0.07360203      -0.00155900       0.00076000       0.00409700 
      46      -1.99254620      -1.99154207       0.07396186      -0.00075000       0.00049700       0.00447900 
      46      -5.97686890      -1.99153995       0.07313883      -0.00155500      -0.01136700      -0.00547700 
      46      -3.98470426      -7.96627065       0.07370542       0.01253100       0.00129500      -0.00822700 
      46      -1.99254400      -5.97469516       0.07406524      -0.00835900       0.00146200       0.00101900 
      46      -5.97248291      -7.96798440       2.02609127      -0.02639400       0.01208300       0.07282500 
      46      -3.98390650      -5.97461676       2.03561320       0.00164200       0.00063900       0.00004700 
      46      -1.99174625      -3.98304127       2.03597302       0.00429700      -0.00570600       0.00161700 
      46      -5.97606895      -3.98303916       2.03514999      -0.00035600      -0.00143000      -0.00005300 
      46      -3.98390869      -1.99146367       2.03550982       0.00438100      -0.00578000       0.00161100 
      46      -1.99174405      -7.96619437       2.03607641       0.00162500       0.00064700       0.00003800 
      46      -5.97524574      -5.97505805       3.99718668       0.00169100      -0.01154600      -0.01565000 
      46      -3.98308548      -3.98348256       3.99754650       0.00245300      -0.00013400      -0.00600900 
      46      -1.99092523      -1.99190707       3.99790633       0.00165900       0.00012200      -0.00638000 
      46      -5.97524793      -1.99190496       3.99708330       0.00108500       0.00924300      -0.01139500 
      46      -3.98308329      -7.96663566       3.99764989      -0.00500900       0.00080400      -0.00942300 
      46      -1.99092304      -5.97506017       3.99800971       0.01514000       0.00065700      -0.01823000 
      47      -5.97524494      -7.96655334       6.04570616       0.00041400      -0.00051200      -0.00021200 
      47      -3.98308469      -5.97497785       6.04606598       0.00086200      -0.00057000      -0.00020100 
      47      -7.96740739      -5.97497573       6.04524295       0.00052800      -0.00067000       0.00015100 
      47      -5.97524713      -3.98340024       6.04560277       0.00049700      -0.00065100       0.00011900 
      47      -3.98308688      -1.99182476       6.04596260       0.00061700      -0.00060700      -0.00008900 
      47      -7.96740958      -1.99182264       6.04513957       0.00045400      -0.00048800       0.00012400 
      47      -5.97477374      -5.97471444       8.20616952      -0.00031700       0.00019900      -0.00081100 
      47      -3.98261349      -3.98313895       8.20652935      -0.00077700       0.00026100      -0.00080800 
      47      -7.96693619      -3.98313683       8.20570631      -0.00072900       0.00028600      -0.00048300 
      47      -5.97477593      -1.99156135       8.20606614      -0.00057300       0.00016300      -0.00069600 
      47      -3.98261568       0.00001414       8.20642596      -0.00068900       0.00011400      -0.00048800 
      47      -7.96693838       0.00001626       8.20560293      -0.00065500       0.00009300      -0.00046500 
30
Lattice="-5.976482952590345 -1.9915733717567636 -0.001182854355787 4.3875566687e-06 -7.966306187289448 0.0002067660631844 -3.9822219334280318 1.9913658123689277 10.18055123478547" Properties=Z:I:1:pos:R:3:vasp_force:R:3 uuid=d7324ea3-b493-4410-a447-21b47dbfb5b1 vasp_virial="0.0316651600973962 0.02436759023738095 -0.27718663362154117 0.02436759023738095 0.025045308167995963 -0.0536153546804852 -0.27718663362154117 -0.0536153546804852 -0.029169100754729293" vasp_energy=-127.28884323 pbc="T T T"
      46      -5.97686670      -5.97469305       0.07324221      -0.00231900       0.00056000       0.00555300 
      46      -3.98470645      -3.98311756       0.07360203      -0.00155000       0.00092800       0.00649600 
      46      -1.99254620      -1.99154207       0.07396186      -0.00081800       0.00156100       0.00535200 
      46      -5.97686890      -1.99153995       0.07313883      -0.00099100       0.00136000       0.00551800 
      46      -3.98470426      -7.96627065       0.07370542      -0.00109700       0.00157200       0.00538300 
      46      -1.99254400      -5.97469516       0.07406524      -0.00128500       0.00089700       0.00420200 
      46      -5.97606675      -7.96619225       2.03525338       0.00050900      -0.00397600      -0.00375900 
      46      -3.98390650      -5.97461676       2.03561320      -0.00957000      -0.00138100       0.01009800 
      46      -1.99174625      -3.98304127       2.03597302      -0.00983700      -0.00143000      -0.01109000 
      46      -5.97606895      -3.98303916       2.03514999       0.00055200      -0.00397100       0.00293800 
      46      -3.98390869      -1.99146367       2.03550982      -0.00065600      -0.00095400      -0.00073300 
      46      -1.99174405      -7.96619437       2.03607641      -0.00069600      -0.00096600      -0.00001000 
      46      -5.98473285      -5.97821949       3.99718480       0.06651100       0.02169600      -0.00562200 
      46      -3.98308548      -3.98348256       3.99754650      -0.00925100      -0.01023100      -0.00614900 
      46      -1.99092523      -1.99190707       3.99790633      -0.00313500       0.00629200      -0.00430600 
      46      -5.97524793      -1.99190496       3.99708330       0.00081200      -0.00020800      -0.00508400 
      46      -3.98308329      -7.96663566       3.99764989      -0.00303100       0.00609800      -0.00592100 
      46      -1.99092304      -5.97506017       3.99800971      -0.00978000      -0.01079200      -0.00398600 
      47      -5.97524494      -7.96655334       6.04570616       0.00179600      -0.00322700       0.00379300 
      47      -3.98308469      -5.97497785       6.04606598      -0.00738400      -0.00039600      -0.00932400 
      47      -7.96740739      -5.97497573       6.04524295      -0.00767500      -0.00033500       0.01041100 
      47      -5.97524713      -3.98340024       6.04560277       0.00174500      -0.00323500      -0.00301700 
      47      -3.98308688      -1.99182476       6.04596260       0.00040100      -0.00051200       0.00036000 
      47      -7.96740958      -1.99182264       6.04513957       0.00037500      -0.00050900       0.00030900 
      47      -5.97477374      -5.97471444       8.20616952      -0.00038500       0.00030200      -0.00028700 
      47      -3.98261349      -3.98313895       8.20652935      -0.00070000       0.00009300      -0.00032400 
      47      -7.96693619      -3.98313683       8.20570631      -0.00065800       0.00012600      -0.00013100 
      47      -5.97477593      -1.99156135       8.20606614      -0.00051600       0.00024500      -0.00024600 
      47      -3.98261568       0.00001414       8.20642596      -0.00081000       0.00015300      -0.00049100 
      47      -7.96693838       0.00001626       8.20560293      -0.00055500       0.00024200       0.00006300 
30
Lattice="-5.976482952590345 -1.9915733717567636 -0.001182854355787 4.3875566687e-06 -7.966306187289448 0.0002067660631844 -3.9822219334280318 1.9913658123689277 10.18055123478547" Properties=Z:I:1:pos:R:3:vasp_force:R:3 uuid=90b027f4-67eb-4014-bb45-bcce4ffab5e3 vasp_virial="0.03216739749240555 0.02389863363360717 -0.28927361189300094 0.02389863363360717 0.023729204150953413 -0.05799329149119916 -0.28927361189300094 -0.05799329149119916 -0.02931735155205133" vasp_energy=-127.28887397 pbc="T T T"
      46      -5.97686670      -5.97469305       0.07324221      -0.00070800       0.00157400       0.00526900 
      46      -3.98470645      -3.98311756       0.07360203      -0.00145500       0.00122400       0.00433600 
      46      -1.99254620      -1.99154207       0.07396186      -0.00220200       0.00057700       0.00546100 
      46      -5.97686890      -1.99153995       0.07313883      -0.00203200       0.00077000       0.00528900 
      46      -3.98470426      -7.96627065       0.07370542      -0.00193500       0.00055100       0.00541600 
      46      -1.99254400      -5.97469516       0.07406524      -0.00176700       0.00121700       0.00662600 
      46      -5.97606675      -7.96619225       2.03525338      -0.00078500       0.00183500       0.00299300 
      46      -3.98390650      -5.97461676       2.03561320       0.00948300      -0.00083000      -0.01125400 
      46      -1.99174625      -3.98304127       2.03597302       0.00929600      -0.00068800       0.00993000 
      46      -5.97606895      -3.98303916       2.03514999      -0.00089700       0.00178600      -0.00370600 
      46      -3.98390869      -1.99146367       2.03550982       0.00034000      -0.00119800      -0.00008400 
      46      -1.99174405      -7.96619437       2.03607641       0.00038700      -0.00120800      -0.00080600 
      46      -5.96575862      -5.97189661       3.99718856      -0.06376600      -0.02092100      -0.00471000 
      46      -3.98308548      -3.98348256       3.99754650       0.01317700       0.01165700      -0.00406200 
      46      -1.99092523      -1.99190707       3.99790633       0.00644800      -0.00528000      -0.00587500 
      46      -5.97524793      -1.99190496       3.99708330       0.00259200       0.00106200      -0.00509600 
      46      -3.98308329      -7.96663566       3.99764989       0.00652400      -0.00539400      -0.00425400 
      46      -1.99092304      -5.97506017       3.99800971       0.01265400       0.01108000      -0.00620900 
      47      -5.97524494      -7.96655334       6.04570616      -0.00055800       0.00204600      -0.00308300 
      47      -3.98308469      -5.97497785       6.04606598       0.00881600      -0.00081100       0.01035500 
      47      -7.96740739      -5.97497573       6.04524295       0.00866500      -0.00080800      -0.00937900 
      47      -5.97524713      -3.98340024       6.04560277      -0.00056500       0.00206600       0.00372800 
      47      -3.98308688      -1.99182476       6.04596260       0.00080600      -0.00066000       0.00033500 
      47      -7.96740958      -1.99182264       6.04513957       0.00083700      -0.00066900       0.00038400 
      47      -5.97477374      -5.97471444       8.20616952      -0.00078000       0.00006100      -0.00022400 
      47      -3.98261349      -3.98313895       8.20652935      -0.00046200       0.00026700      -0.00017500 
      47      -7.96693619      -3.98313683       8.20570631      -0.00050700       0.00023700      -0.00037300 
      47      -5.97477593      -1.99156135       8.20606614      -0.00064800       0.00012000      -0.00025600 
      47      -3.98261568       0.00001414       8.20642596      -0.00035200       0.00021300      -0.00001300 
      47      -7.96693838       0.00001626       8.20560293      -0.00060600       0.00012200      -0.00056500 
30
Lattice="-5.976482952590345 -1.9915733717567636 -0.001182854355787 4.3875566687e-06 -7.966306187289448 0.0002067660631844 -3.9822219334280318 1.9913658123689277 10.18055123478547" Properties=Z:I:1:pos:R:3:vasp_force:R:3 uuid=df85bbc9-5cfd-48a7-9897-f57769ce9670 vasp_virial="0.03183761510652592 0.02345690676811702 -0.2830803591967111 0.02345690676811702 0.024397845502140546 -0.04977898710896806 -0.2830803591967111 -0.04977898710896806 -0.029066232854546657" vasp_energy=-127.28885181 pbc="T T T"
      46      -5.97686670      -5.97469305       0.07324221      -0.00159600      -0.00032100       0.00547000 
      46      -3.98470645      -3.98311756       0.07360203      -0.00171900       0.00123100       0.00610600 
      46      -1.99254620      -1.99154207       0.07396186      -0.00126000       0.00178600       0.00617400 
      46      -5.97686890      -1.99153995       0.07313883      -0.00141800       0.00168600       0.00546100 
      46      -3.98470426      -7.96627065       0.07370542      -0.00125000       0.00191600       0.00476000 
      46      -1.99254400      -5.97469516       0.07406524      -0.00174400       0.00116200       0.00472900 
      46      -5.97606675      -7.96619225       2.03525338      -0.00021000      -0.01031800      -0.01213900 
      46      -3.98390650      -5.97461676       2.03561320      -0.00078600      -0.00059300      -0.00040300 
      46      -1.99174625      -3.98304127       2.03597302      -0.00076200      -0.00067000      -0.00022600 
      46      -5.97606895      -3.98303916       2.03514999      -0.00014700      -0.01011100       0.01098300 
      46      -3.98390869      -1.99146367       2.03550982       0.00049800      -0.00235000      -0.00020700 
      46      -1.99174405      -7.96619437       2.03607641       0.00048300      -0.00228400      -0.00049600 
      46      -5.97524573      -5.98505805       3.99718694       0.00138800       0.06861200      -0.00642300 
      46      -3.98308548      -3.98348256       3.99754650      -0.00676700      -0.00806300      -0.00575300 
      46      -1.99092523      -1.99190707       3.99790633       0.01015600      -0.00718800      -0.00579300 
      46      -5.97524793      -1.99190496       3.99708330       0.00147900      -0.00094700      -0.00500200 
      46      -3.98308329      -7.96663566       3.99764989       0.01055900      -0.00747600      -0.00438500 
      46      -1.99092304      -5.97506017       3.99800971      -0.00715900      -0.00834300      -0.00433000 
      47      -5.97524494      -7.96655334       6.04570616       0.00062200      -0.00913100       0.01115900 
      47      -3.98308469      -5.97497785       6.04606598       0.00050600       0.00053500       0.00039100 
      47      -7.96740739      -5.97497573       6.04524295       0.00053400       0.00055000       0.00034500 
      47      -5.97524713      -3.98340024       6.04560277       0.00060900      -0.00886400      -0.00998400 
      47      -3.98308688      -1.99182476       6.04596260       0.00071300      -0.00090800       0.00037300 
      47      -7.96740958      -1.99182264       6.04513957       0.00070200      -0.00088600       0.00043800 
      47      -5.97477374      -5.97471444       8.20616952      -0.00053900       0.00041100      -0.00024800 
      47      -3.98261349      -3.98313895       8.20652935      -0.00053900      -0.00006700      -0.00027000 
      47      -7.96693619      -3.98313683       8.20570631      -0.00058800       0.00011500      -0.00041100 
      47      -5.97477593      -1.99156135       8.20606614      -0.00062200       0.00040800      -0.00017900 
      47      -3.98261568       0.00001414       8.20642596      -0.00058800      -0.00007300      -0.00012500 
      47      -7.96693838       0.00001626       8.20560293      -0.00055600       0.00018000      -0.00001800 
30
Lattice="-5.976482952590345 -1.9915733717567636 -0.001182854355787 4.3875566687e-06 -7.966306187289448 0.0002067660631844 -3.9822219334280318 1.9913658123689277 10.18055123478547" Properties=Z:I:1:pos:R:3:vasp_force:R:3 uuid=6d6abedb-0ef0-4e17-861f-5e0379b1a239 vasp_virial="0.03125973954961758 0.023378243079742067 -0.28318322709689375 0.023378243079742067 0.023910735739511003 -0.061832684589192256 -0.28318322709689375 -0.061832684589192256 -0.02894823732198422" vasp_energy=-127.28886305 pbc="T T T"
      46      -5.97686670      -5.97469305       0.07324221      -0.00144200       0.00242800       0.00543000 
      46      -3.98470645      -3.98311756       0.07360203      -0.00128800       0.00087600       0.00476000 
      46      -1.99254620      -1.99154207       0.07396186      -0.00181200       0.00031500       0.00469900 
      46      -5.97686890      -1.99153995       0.07313883      -0.00162300       0.00042200       0.00547500 
      46      -3.98470426      -7.96627065       0.07370542      -0.00176300       0.00019400       0.00611300 
      46      -1.99254400      -5.97469516       0.07406524      -0.00133400       0.00094400       0.00613800 
      46      -5.97606675      -7.96619225       2.03525338      -0.00011400       0.00784700       0.01099700 
      46      -3.98390650      -5.97461676       2.03561320       0.00040700      -0.00159000      -0.00024800 
      46      -1.99174625      -3.98304127       2.03597302       0.00048200      -0.00152700      -0.00042400 
      46      -5.97606895      -3.98303916       2.03514999      -0.00018100       0.00819900      -0.01213000 
      46      -3.98390869      -1.99146367       2.03550982      -0.00079800       0.00015700      -0.00055000 
      46      -1.99174405      -7.96619437       2.03607641      -0.00084100       0.00009900      -0.00025600 
      46      -5.97524574      -5.96505805       3.99718642       0.00178800      -0.06710400      -0.00589600 
      46      -3.98308548      -3.98348256       3.99754650       0.01053700       0.00917500      -0.00434200 
      46      -1.99092523      -1.99190707       3.99790633      -0.00712700       0.00830700      -0.00431800 
      46      -5.97524793      -1.99190496       3.99708330       0.00190500       0.00177900      -0.00516400 
      46      -3.98308329      -7.96663566       3.99764989      -0.00680700       0.00802200      -0.00573000 
      46      -1.99092304      -5.97506017       3.99800971       0.01016400       0.00889600      -0.00576600 
      47      -5.97524494      -7.96655334       6.04570616       0.00057500       0.00768200      -0.01002200 
      47      -3.98308469      -5.97497785       6.04606598       0.00066900      -0.00173400       0.00035300 
      47      -7.96740739      -5.97497573       6.04524295       0.00068100      -0.00175100       0.00039900 