  30
   1   1
     5.598039818347762    -0.309296171123423    -0.004302665116920
    -0.296110228487045     5.585915071679157     0.003416091069239
    -0.057110189052958    -0.062270722406756     6.050822730253400
   1   2
    -0.603067002460422    -0.626818295682389    -0.021447893722184
    -0.627305973482207    -0.604567975974739    -0.022937899734196
    -0.019729692917161    -0.020772537239290    -0.066342214826715
   1   3
    -0.011910218116985    -0.045076891646833     0.017304527944712
    -0.045533434080099    -0.008852499294282     0.015766522815068
     0.019109891022982     0.018015196631363    -0.034492843028379
   1   4
    -0.011950342847450    -0.045117175537919     0.017301272956483
    -0.045521932819706    -0.008840449670549     0.015757611112376
     0.019138779164037     0.018046306004759    -0.034495377633902
   1   5
    -0.602991237846643    -0.626751454028041    -0.021415191088950
    -0.627206177891345    -0.604457304672205    -0.022901668250969
    -0.019736952340564    -0.020780895032913    -0.066357758259579
   1   6
    -0.763464771401050    -0.018733702572026    -0.802231426523113
    -0.003006503841755     0.069655338801960    -0.022905535032167
    -0.838279494065365    -0.022384519887780    -0.743203176485754
   1   7
     0.074942701281048     0.003325623653196     0.003152706415927
    -0.002471061740127    -0.759681127602848     0.829249861388148
     0.010021519674568     0.855344438182144    -0.744248955807625
   1   8
    -0.013109010048808    -0.009914078268555    -0.001984740388956
    -0.010117367818078    -0.012860729072043     0.001553608214508
     0.014698178181363     0.014766722809000    -0.010952058152109
   1   9
    -0.760428619426858    -0.002680443384535     0.832758136371199
     0.003437086181153     0.079790973741463    -0.000134619820999
     0.857732318635964     0.006907454996678    -0.747801370546337
   1  10
     0.066775880948826    -0.006870815454806    -0.018871589017837
    -0.023384936980639    -0.769548273055873    -0.799196395002880
    -0.023063980482448    -0.834385707293659    -0.749014834070097
   1  11
    -0.711025103724711     0.804825806739142    -0.000195703801732
     0.806520508452904    -0.711684632677330     0.000673516922321
    -0.001228445135407     0.001124105688140     0.072855293140195
   1  12
     0.018877148238849    -0.002450089210466     0.001691993942274
     0.002751408942688    -0.038602528623109    -0.006331961714485
     0.004909937751221    -0.001147600248489     0.018191065629017
   1  13
    -0.005681437114627     0.001268721137957    -0.026052632887179
    -0.010297494612836    -0.008741484479118     0.029459971310603
    -0.011765938868183     0.017501691664770    -0.003840186957396
   1  14
    -0.003671822743854    -0.006024473245519     0.024145160249183
     0.002981281871917    -0.002802522467192    -0.029106235697215
     0.013851535193855    -0.014820707797739    -0.000768537695228
   1  15
    -0.042369088868453     0.003522790656710    -0.005269632805514
    -0.004016282509624     0.018818557629529     0.003714194570035
    -0.001392914357003     0.007683509105930     0.017711359131474
   1  16
    -0.017302200558304     0.030690270658728    -0.005436098458199
     0.032060448116192    -0.016482232979621    -0.008909487616203
    -0.016427215754398    -0.017722918214854    -0.011412764828310
   1  17
    -0.037811250490320     0.029104944126395     0.011150366444102
     0.027070332771438    -0.037248679385750     0.012810746106046
     0.020155975824414     0.022258257124713    -0.029029431943912
   1  18
     0.020139881182072     0.001183763374674    -0.013100874369899
    -0.001642730634806     0.019854644492501    -0.010906257507093
     0.000393410239098    -0.002956864615504     0.013901111022057
   1  19
    -0.037808859430254     0.029104884490501     0.011151367812511
     0.027072722458154    -0.037245911961749     0.012808212154040
     0.020150279962315     0.022252039379208    -0.029028756812738
   1  20
    -0.017305870925110     0.030688022764225    -0.005435872059416
     0.032059607653737    -0.016486600188414    -0.008906434472905
    -0.016420920824819    -0.017714499972343    -0.011420430887382
   1  21
    -0.711017675711881     0.804817274871700    -0.000212658934732
     0.806532180828725    -0.711698115796942     0.000689088706310
    -0.001214610045166     0.001110597894676     0.072854948073795
   1  22
    -0.042358697627935     0.003494548661356    -0.005273127720191
    -0.003976913943054     0.018781139750044     0.003709994139528
    -0.001450970491449     0.007749770006256     0.017717382290349
   1  23
    -0.003648888234412    -0.006055311081158     0.024145168246713
     0.002991479787567    -0.002790928714582    -0.029105521117846
     0.013816356011598    -0.014799542757638    -0.000771009501605
   1  24
    -0.005653225427077     0.001243808180735    -0.026053366880998
    -0.010305350660109    -0.008748711516100     0.029454995424581
    -0.011787354020986     0.017534998239939    -0.003837910264885
   1  25
     0.018905247167456    -0.002464051293061     0.001691591696099
     0.002789390756433    -0.038640518591472    -0.006326000538462
     0.004843252161946    -0.001091688162310     0.018189812692934
   1  26
    -0.760368282601848    -0.002719456553859     0.832721330021756
     0.003435186352769     0.079746323202430    -0.000162926582097
     0.857690769802083     0.006984042921342    -0.747746116438407
   1  27
    -0.013075791623476    -0.009950875731127    -0.001982627168406
    -0.010073562151523    -0.012901043544126     0.001553599585662
     0.014620449031812     0.014840184333732    -0.010954182124089
   1  28
     0.074984046467438     0.003309199322743     0.003135616405896
    -0.002429735617280    -0.759713098521528     0.829326802396171
     0.009946804291088     0.855381077492614    -0.744304993947578
   1  29
    -0.763445917104407    -0.018779364736108    -0.802239694868682
    -0.003015938759564     0.069580004960949    -0.022923695371456
    -0.838302070914772    -0.022280714707108    -0.743172149568807
   1  30
     0.066801837622791    -0.006876739147435    -0.018844578933940
    -0.023284761334351    -0.769546415320087    -0.799189192165665
    -0.023168610285496    -0.834370276531155    -0.749047618695955
   2   1
    -0.602991237846643    -0.626751454028041    -0.021415191088950
    -0.627206177891345    -0.604457304672205    -0.022901668250969
    -0.019736952340564    -0.020780895032913    -0.066357758259579
   2   2
     5.598039818347762    -0.309296171123422    -0.004302665116919
    -0.296110228487044     5.585915071679157     0.003416091069240
    -0.057110189052958    -0.062270722406756     6.050822730253403
   2   3
    -0.603067002460422    -0.626818295682389    -0.021447893722184
    -0.627305973482207    -0.604567975974739    -0.022937899734196
    -0.019729692917161    -0.020772537239290    -0.066342214826715
   2   4
    -0.011910218116985    -0.045076891646833     0.017304527944712
    -0.045533434080099    -0.008852499294282     0.015766522815068
     0.019109891022982     0.018015196631363    -0.034492843028379
   2   5
    -0.011950342847450    -0.045117175537919     0.017301272956483
    -0.045521932819706    -0.008840449670549     0.015757611112376
     0.019138779164037     0.018046306004759    -0.034495377633902
   2   6
     0.066775880948826    -0.006870815454807    -0.018871589017837
    -0.023384936980640    -0.769548273055874    -0.799196395002880
    -0.023063980482448    -0.834385707293660    -0.749014834070097
   2   7
    -0.763464771401050    -0.018733702572026    -0.802231426523114
    -0.003006503841755     0.069655338801960    -0.022905535032167
    -0.838279494065365    -0.022384519887780    -0.743203176485754
   2   8
     0.074942701281048     0.003325623653196     0.003152706415928
    -0.002471061740128    -0.759681127602848     0.829249861388148
     0.010021519674569     0.855344438182144    -0.744248955807625
   2   9
    -0.013109010048808    -0.009914078268555    -0.001984740388956
    -0.010117367818078    -0.012860729072043     0.001553608214508
     0.014698178181363     0.014766722809000    -0.010952058152109
   2  10
    -0.760428619426858    -0.002680443384535     0.832758136371199
     0.003437086181153     0.079790973741463    -0.000134619820999
     0.857732318635964     0.006907454996678    -0.747801370546338
   2  11
    -0.042369088868453     0.003522790656710    -0.005269632805514
    -0.004016282509624     0.018818557629529     0.003714194570035
    -0.001392914357003     0.007683509105930     0.017711359131474
   2  12
    -0.711025103724711     0.804825806739141    -0.000195703801732
     0.806520508452904    -0.711684632677330     0.000673516922321
    -0.001228445135407     0.001124105688140     0.072855293140195
   2  13
     0.018877148238849    -0.002450089210466     0.001691993942274
     0.002751408942688    -0.038602528623109    -0.006331961714485
     0.004909937751221    -0.001147600248489     0.018191065629017
   2  14
    -0.005681437114627     0.001268721137957    -0.026052632887179
    -0.010297494612836    -0.008741484479118     0.029459971310603
    -0.011765938868183     0.017501691664770    -0.003840186957396
   2  15
    -0.003671822743854    -0.006024473245519     0.024145160249183
     0.002981281871917    -0.002802522467192    -0.029106235697215
     0.013851535193855    -0.014820707797739    -0.000768537695228
   2  16
    -0.017305870925110     0.030688022764225    -0.005435872059416
     0.032059607653737    -0.016486600188414    -0.008906434472905
    -0.016420920824819    -0.017714499972343    -0.011420430887382
   2  17
    -0.017302200558304     0.030690270658728    -0.005436098458199
     0.032060448116192    -0.016482232979621    -0.008909487616203
    -0.016427215754398    -0.017722918214854    -0.011412764828310
   2  18
    -0.037811250490320     0.029104944126395     0.011150366444102
     0.027070332771438    -0.037248679385750     0.012810746106046
     0.020155975824414     0.022258257124713    -0.029029431943912
   2  19
     0.020139881182072     0.001183763374674    -0.013100874369899
    -0.001642730634806     0.019854644492501    -0.010906257507093
     0.000393410239098    -0.002956864615504     0.013901111022057
   2  20
    -0.037808859430254     0.029104884490501     0.011151367812511
     0.027072722458154    -0.037245911961749     0.012808212154040
     0.020150279962315     0.022252039379208    -0.029028756812738
   2  21
     0.018905247167456    -0.002464051293061     0.001691591696099
     0.002789390756433    -0.038640518591472    -0.006326000538462
     0.004843252161946    -0.001091688162310     0.018189812692934
   2  22
    -0.711017675711881     0.804817274871700    -0.000212658934732
     0.806532180828725    -0.711698115796942     0.000689088706310
    -0.001214610045166     0.001110597894676     0.072854948073795
   2  23
    -0.042358697627935     0.003494548661356    -0.005273127720191
    -0.003976913943054     0.018781139750044     0.003709994139528
    -0.001450970491449     0.007749770006256     0.017717382290349
   2  24
    -0.003648888234412    -0.006055311081158     0.024145168246713
     0.002991479787567    -0.002790928714582    -0.029105521117846
     0.013816356011598    -0.014799542757638    -0.000771009501605
   2  25
    -0.005653225427077     0.001243808180735    -0.026053366880998
    -0.010305350660109    -0.008748711516100     0.029454995424581
    -0.011787354020986     0.017534998239939    -0.003837910264885
   2  26
     0.066801837622791    -0.006876739147435    -0.018844578933941
    -0.023284761334351    -0.769546415320087    -0.799189192165665
    -0.023168610285496    -0.834370276531155    -0.749047618695956
   2  27
    -0.760368282601848    -0.002719456553859     0.832721330021756
     0.003435186352769     0.079746323202430    -0.000162926582097
     0.857690769802083     0.006984042921342    -0.747746116438407
   2  28
    -0.013075791623476    -0.009950875731127    -0.001982627168406
    -0.010073562151523    -0.012901043544126     0.001553599585662
     0.014620449031812     0.014840184333732    -0.010954182124089
   2  29
     0.074984046467438     0.003309199322743     0.003135616405896
    -0.002429735617280    -0.759713098521528     0.829326802396171
     0.009946804291088     0.855381077492614    -0.744304993947579
   2  30
    -0.763445917104407    -0.018779364736108    -0.802239694868682
    -0.003015938759564     0.069580004960949    -0.022923695371456
    -0.838302070914772    -0.022280714707108    -0.743172149568807
   3   1
    -0.011950342847450    -0.045117175537919     0.017301272956483
    -0.045521932819706    -0.008840449670549     0.015757611112376
     0.019138779164037     0.018046306004759    -0.034495377633902
   3   2
    -0.602991237846643    -0.626751454028041    -0.021415191088950
    -0.627206177891345    -0.604457304672205    -0.022901668250969
    -0.019736952340564    -0.020780895032913    -0.066357758259579
   3   3
     5.598039818347762    -0.309296171123422    -0.004302665116919
    -0.296110228487044     5.585915071679157     0.003416091069240
    -0.057110189052958    -0.062270722406756     6.050822730253403
   3   4
    -0.603067002460422    -0.626818295682389    -0.021447893722184
    -0.627305973482207    -0.604567975974739    -0.022937899734196
    -0.019729692917161    -0.020772537239290    -0.066342214826715
   3   5
    -0.011910218116985    -0.045076891646833     0.017304527944712
    -0.045533434080099    -0.008852499294282     0.015766522815068
     0.019109891022982     0.018015196631363    -0.034492843028379
   3   6
    -0.760428619426858    -0.002680443384535     0.832758136371199
     0.003437086181153     0.079790973741463    -0.000134619820999
     0.857732318635964     0.006907454996678    -0.747801370546338
   3   7
     0.066775880948826    -0.006870815454807    -0.018871589017837
    -0.023384936980640    -0.769548273055874    -0.799196395002880
    -0.023063980482448    -0.834385707293660    -0.749014834070097
   3   8
    -0.763464771401050    -0.018733702572026    -0.802231426523114
    -0.003006503841755     0.069655338801960    -0.022905535032167
    -0.838279494065365    -0.022384519887780    -0.743203176485754
   3   9
     0.074942701281048     0.003325623653196     0.003152706415928
    -0.002471061740128    -0.759681127602848     0.829249861388148
     0.010021519674569     0.855344438182144    -0.744248955807625
   3  10
    -0.013109010048808    -0.009914078268555    -0.001984740388956
    -0.010117367818078    -0.012860729072043     0.001553608214508
     0.014698178181363     0.014766722809000    -0.010952058152109
   3  11
    -0.003671822743854    -0.006024473245519     0.024145160249183
     0.002981281871917    -0.002802522467192    -0.029106235697215
     0.013851535193855    -0.014820707797739    -0.000768537695228
   3  12
    -0.042369088868453     0.003522790656710    -0.005269632805514
    -0.004016282509624     0.018818557629529     0.003714194570035
    -0.001392914357003     0.007683509105930     0.017711359131474
   3  13
    -0.711025103724711     0.804825806739141    -0.000195703801732
     0.806520508452904    -0.711684632677330     0.000673516922321
    -0.001228445135407     0.001124105688140     0.072855293140195
   3  14
     0.018877148238849    -0.002450089210466     0.001691993942274
     0.002751408942688    -0.038602528623109    -0.006331961714485
     0.004909937751221    -0.001147600248489     0.018191065629017
   3  15
    -0.005681437114627     0.001268721137957    -0.026052632887179
    -0.010297494612836    -0.008741484479118     0.029459971310603
    -0.011765938868183     0.017501691664770    -0.003840186957396
   3  16
    -0.037808859430254     0.029104884490501     0.011151367812511
     0.027072722458154    -0.037245911961749     0.012808212154040
     0.020150279962315     0.022252039379208    -0.029028756812738
   3  17
    -0.017305870925110     0.030688022764225    -0.005435872059416
     0.032059607653737    -0.016486600188414    -0.008906434472905
    -0.016420920824819    -0.017714499972343    -0.011420430887382
   3  18
    -0.017302200558304     0.030690270658728    -0.005436098458199
     0.032060448116192    -0.016482232979621    -0.008909487616203
    -0.016427215754398    -0.017722918214854    -0.011412764828310
   3  19
    -0.037811250490320     0.029104944126395     0.011150366444102
     0.027070332771438    -0.037248679385750     0.012810746106046
     0.020155975824414     0.022258257124713    -0.029029431943912
   3  20
     0.020139881182072     0.001183763374674    -0.013100874369899
    -0.001642730634806     0.019854644492501    -0.010906257507093
     0.000393410239098    -0.002956864615504     0.013901111022057
   3  21
    -0.005653225427077     0.001243808180735    -0.026053366880998
    -0.010305350660109    -0.008748711516100     0.029454995424581
    -0.011787354020986     0.017534998239939    -0.003837910264885
   3  22
     0.018905247167456    -0.002464051293061     0.001691591696099
     0.002789390756433    -0.038640518591472    -0.006326000538462
     0.004843252161946    -0.001091688162310     0.018189812692934
   3  23
    -0.711017675711881     0.804817274871700    -0.000212658934732
     0.806532180828725    -0.711698115796942     0.000689088706310
    -0.001214610045166     0.001110597894676     0.072854948073795
   3  24
    -0.042358697627935     0.003494548661356    -0.005273127720191
    -0.003976913943054     0.018781139750044     0.003709994139528
    -0.001450970491449     0.007749770006256     0.017717382290349
   3  25
    -0.003648888234412    -0.006055311081158     0.024145168246713
     0.002991479787567    -0.002790928714582    -0.029105521117846
     0.013816356011598    -0.014799542757638    -0.000771009501605
   3  26
    -0.763445917104407    -0.018779364736108    -0.802239694868682
    -0.003015938759564     0.069580004960949    -0.022923695371456
    -0.838302070914772    -0.022280714707108    -0.743172149568807
   3  27
     0.066801837622791    -0.006876739147435    -0.018844578933941
    -0.023284761334351    -0.769546415320087    -0.799189192165665
    -0.023168610285496    -0.834370276531155    -0.749047618695956
   3  28
    -0.760368282601848    -0.002719456553859     0.832721330021756
     0.003435186352769     0.079746323202430    -0.000162926582097
     0.857690769802083     0.006984042921342    -0.747746116438407
   3  29
    -0.013075791623476    -0.009950875731127    -0.001982627168406
    -0.010073562151523    -0.012901043544126     0.001553599585662
     0.014620449031812     0.014840184333732    -0.010954182124089
   3  30
     0.074984046467438     0.003309199322743     0.003135616405896
    -0.002429735617280    -0.759713098521528     0.829326802396171
     0.009946804291088     0.855381077492614    -0.744304993947579
   4   1
    -0.011910218116985    -0.045076891646833     0.017304527944712
    -0.045533434080099    -0.008852499294282     0.015766522815068
     0.019109891022982     0.018015196631363    -0.034492843028379
   4   2
    -0.011950342847450    -0.045117175537919     0.017301272956483
    -0.045521932819706    -0.008840449670549     0.015757611112376
     0.019138779164037     0.018046306004759    -0.034495377633902
   4   3
    -0.602991237846643    -0.626751454028041    -0.021415191088950
    -0.627206177891345    -0.604457304672205    -0.022901668250969
    -0.019736952340564    -0.020780895032913    -0.066357758259579
   4   4
     5.598039818347762    -0.309296171123422    -0.004302665116919
    -0.296110228487044     5.585915071679157     0.003416091069240
    -0.057110189052958    -0.062270722406756     6.050822730253403
   4   5
    -0.603067002460422    -0.626818295682389    -0.021447893722184
    -0.627305973482207    -0.604567975974739    -0.022937899734196
    -0.019729692917161    -0.020772537239290    -0.066342214826715
   4   6
    -0.013109010048808    -0.009914078268555    -0.001984740388956
    -0.010117367818078    -0.012860729072043     0.001553608214508
     0.014698178181363     0.014766722809000    -0.010952058152109
   4   7
    -0.760428619426858    -0.002680443384535     0.832758136371199
     0.003437086181153     0.079790973741463    -0.000134619820999
     0.857732318635964     0.006907454996678    -0.747801370546338
   4   8
     0.066775880948826    -0.006870815454807    -0.018871589017837
    -0.023384936980640    -0.769548273055874    -0.799196395002880
    -0.023063980482448    -0.834385707293660    -0.749014834070097
   4   9
    -0.763464771401050    -0.018733702572026    -0.802231426523114
    -0.003006503841755     0.069655338801960    -0.022905535032167
    -0.838279494065365    -0.022384519887780    -0.743203176485754
   4  10
     0.074942701281048     0.003325623653196     0.003152706415928
    -0.002471061740128    -0.759681127602848     0.829249861388148
     0.010021519674569     0.855344438182144    -0.744248955807625
   4  11
    -0.005681437114627     0.001268721137957    -0.026052632887179
    -0.010297494612836    -0.008741484479118     0.029459971310603
    -0.011765938868183     0.017501691664770    -0.003840186957396
   4  12
    -0.003671822743854    -0.006024473245519     0.024145160249183
     0.002981281871917    -0.002802522467192    -0.029106235697215
     0.013851535193855    -0.014820707797739    -0.000768537695228
   4  13
    -0.042369088868453     0.003522790656710    -0.005269632805514
    -0.004016282509624     0.018818557629529     0.003714194570035
    -0.001392914357003     0.007683509105930     0.017711359131474
   4  14
    -0.711025103724711     0.804825806739141    -0.000195703801732
     0.806520508452904    -0.711684632677330     0.000673516922321
    -0.001228445135407     0.001124105688140     0.072855293140195
   4  15
     0.018877148238849    -0.002450089210466     0.001691993942274
     0.002751408942688    -0.038602528623109    -0.006331961714485
     0.004909937751221    -0.001147600248489     0.018191065629017
   4  16
     0.020139881182072     0.001183763374674    -0.013100874369899
    -0.001642730634806     0.019854644492501    -0.010906257507093
     0.000393410239098    -0.002956864615504     0.013901111022057
   4  17
    -0.037808859430254     0.029104884490501     0.011151367812511
     0.027072722458154    -0.037245911961749     0.012808212154040
     0.020150279962315     0.022252039379208    -0.029028756812738
   4  18
    -0.017305870925110     0.030688022764225    -0.005435872059416
     0.032059607653737    -0.016486600188414    -0.008906434472905
    -0.016420920824819    -0.017714499972343    -0.011420430887382
   4  19
    -0.017302200558304     0.030690270658728    -0.005436098458199
     0.032060448116192    -0.016482232979621    -0.008909487616203
    -0.016427215754398    -0.017722918214854    -0.011412764828310
   4  20
    -0.037811250490320     0.029104944126395     0.011150366444102
     0.027070332771438    -0.037248679385750     0.012810746106046
     0.020155975824414     0.022258257124713    -0.029029431943912
   4  21
    -0.003648888234412    -0.006055311081158     0.024145168246713
     0.002991479787567    -0.002790928714582    -0.029105521117846
     0.013816356011598    -0.014799542757638    -0.000771009501605
   4  22
    -0.005653225427077     0.001243808180735    -0.026053366880998
    -0.010305350660109    -0.008748711516100     0.029454995424581
    -0.011787354020986     0.017534998239939    -0.003837910264885
   4  23
     0.018905247167456    -0.002464051293061     0.001691591696099
     0.002789390756433    -0.038640518591472    -0.006326000538462
     0.004843252161946    -0.001091688162310     0.018189812692934
   4  24
    -0.711017675711881     0.804817274871700    -0.000212658934732
     0.806532180828725    -0.711698115796942     0.000689088706310
    -0.001214610045166     0.001110597894676     0.072854948073795
   4  25
    -0.042358697627935     0.003494548661356    -0.005273127720191
    -0.003976913943054     0.018781139750044     0.003709994139528
    -0.001450970491449     0.007749770006256     0.017717382290349
   4  26
     0.074984046467438     0.003309199322743     0.003135616405896
    -0.002429735617280    -0.759713098521528     0.829326802396171
     0.009946804291088     0.855381077492614    -0.744304993947579
   4  27
    -0.763445917104407    -0.018779364736108    -0.802239694868682
    -0.003015938759564     0.069580004960949    -0.022923695371456
    -0.838302070914772    -0.022280714707108    -0.743172149568807
   4  28
     0.066801837622791    -0.006876739147435    -0.018844578933941
    -0.023284761334351    -0.769546415320087    -0.799189192165665
    -0.023168610285496    -0.834370276531155    -0.749047618695956
   4  29
    -0.760368282601848    -0.002719456553859     0.832721330021756
     0.003435186352769     0.079746323202430    -0.000162926582097
     0.857690769802083     0.006984042921342    -0.747746116438407
   4  30
    -0.013075791623476    -0.009950875731127    -0.001982627168406
    -0.010073562151523    -0.012901043544126     0.001553599585662
     0.014620449031812     0.014840184333732    -0.010954182124089
   5   1
    -0.603067002460422    -0.626818295682389    -0.021447893722184
    -0.627305973482207    -0.604567975974739    -0.022937899734196
    -0.019729692917161    -0.020772537239290    -0.066342214826715
   5   2
    -0.011910218116985    -0.045076891646833     0.017304527944712
    -0.045533434080099    -0.008852499294282     0.015766522815068
     0.019109891022982     0.018015196631363    -0.034492843028379
   5   3
    -0.011950342847450    -0.045117175537919     0.017301272956483
    -0.045521932819706    -0.008840449670549     0.015757611112376
     0.019138779164037     0.018046306004759    -0.034495377633902
   5   4
    -0.602991237846643    -0.626751454028041    -0.021415191088950
    -0.627206177891345    -0.604457304672205    -0.022901668250969
    -0.019736952340564    -0.020780895032913    -0.066357758259579
   5   5
     5.598039818347762    -0.309296171123422    -0.004302665116919
    -0.296110228487044     5.585915071679157     0.003416091069240
    -0.057110189052958    -0.062270722406756     6.050822730253403
   5   6
     0.074942701281048     0.003325623653196     0.003152706415928
    -0.002471061740128    -0.759681127602848     0.829249861388148
     0.010021519674569     0.855344438182144    -0.744248955807625
   5   7
    -0.013109010048808    -0.009914078268555    -0.001984740388956
    -0.010117367818078    -0.012860729072043     0.001553608214508
     0.014698178181363     0.014766722809000    -0.010952058152109
   5   8
    -0.760428619426858    -0.002680443384535     0.832758136371199
     0.003437086181153     0.079790973741463    -0.000134619820999
     0.857732318635964     0.006907454996678    -0.747801370546338
   5   9
     0.066775880948826    -0.006870815454807    -0.018871589017837
    -0.023384936980640    -0.769548273055874    -0.799196395002880
    -0.023063980482448    -0.834385707293660    -0.749014834070097
   5  10
    -0.763464771401050    -0.018733702572026    -0.802231426523114
    -0.003006503841755     0.069655338801960    -0.022905535032167
    -0.838279494065365    -0.022384519887780    -0.743203176485754
   5  11
     0.018877148238849    -0.002450089210466     0.001691993942274
     0.002751408942688    -0.038602528623109    -0.006331961714485
     0.004909937751221    -0.001147600248489     0.018191065629017
   5  12
    -0.005681437114627     0.001268721137957    -0.026052632887179
    -0.010297494612836    -0.008741484479118     0.029459971310603
    -0.011765938868183     0.017501691664770    -0.003840186957396
   5  13
    -0.003671822743854    -0.006024473245519     0.024145160249183
     0.002981281871917    -0.002802522467192    -0.029106235697215
     0.013851535193855    -0.014820707797739    -0.000768537695228
   5  14
    -0.042369088868453     0.003522790656710    -0.005269632805514
    -0.004016282509624     0.018818557629529     0.003714194570035
    -0.001392914357003     0.007683509105930     0.017711359131474
   5  15
    -0.711025103724711     0.804825806739141    -0.000195703801732
     0.806520508452904    -0.711684632677330     0.000673516922321
    -0.001228445135407     0.001124105688140     0.072855293140195
   5  16
    -0.037811250490320     0.029104944126395     0.011150366444102
     0.027070332771438    -0.037248679385750     0.012810746106046
     0.020155975824414     0.022258257124713    -0.029029431943912
   5  17
     0.020139881182072     0.001183763374674    -0.013100874369899
    -0.001642730634806     0.019854644492501    -0.010906257507093
     0.000393410239098    -0.002956864615504     0.013901111022057
   5  18
    -0.037808859430254     0.029104884490501     0.011151367812511
     0.027072722458154    -0.037245911961749     0.012808212154040
     0.020150279962315     0.022252039379208    -0.029028756812738
   5  19
    -0.017305870925110     0.030688022764225    -0.005435872059416
     0.032059607653737    -0.016486600188414    -0.008906434472905
    -0.016420920824819    -0.017714499972343    -0.011420430887382
   5  20
    -0.017302200558304     0.030690270658728    -0.005436098458199
     0.032060448116192    -0.016482232979621    -0.008909487616203
    -0.016427215754398    -0.017722918214854    -0.011412764828310
   5  21
    -0.042358697627935     0.003494548661356    -0.005273127720191
    -0.003976913943054     0.018781139750044     0.003709994139528
    -0.001450970491449     0.007749770006256     0.017717382290349
   5  22
    -0.003648888234412    -0.006055311081158     0.024145168246713
     0.002991479787567    -0.002790928714582    -0.029105521117846
     0.013816356011598    -0.014799542757638    -0.000771009501605
   5  23
    -0.005653225427077     0.001243808180735    -0.026053366880998
    -0.010305350660109    -0.008748711516100     0.029454995424581