30
Lattice="-4.119119390328899 -4.118728650562652 -4.081535892654421 -2.052150403445482 -2.0538540903097715 8.150056866378332 -6.171850193669301 6.172498736350646 -0.0012160222796847" Properties=Z:I:1:pos:R:3:vasp_force:R:3 uuid=20e0f98a-f915-45fd-b631-a6ee43a51841 vasp_virial="-0.2516926375778065 -0.16404268202816819 -0.050245444484482364 -0.16404268202816819 -0.04665786932831516 -0.2767733431740746 -0.050245444484482364 -0.2767733431740746 -0.027966925969653025" vasp_energy=-94.96527528 pbc="T T T"
      46      -4.12303156      -2.06553637      -2.04801051       0.03031300       0.03016900       0.03480400 
      46      -4.11131288      -2.05533749       6.11038774      -0.00744600      -0.00732100      -0.00062900 
      46      -6.17235443      -4.11580386       2.03145483      -0.00031600      -0.00054200       0.00036700 
      46      -4.11427660      -2.05754158       2.03405782      -0.00021300      -0.00020500      -0.00001100 
      46      -2.05619876       0.00072070       2.03666080      -0.00727700      -0.00706100      -0.00100400 
      47      -8.20009704      -4.14293244       4.06792140      -0.00698600      -0.00300600      -0.00831200 
      47      -6.14201920      -2.08467017       4.07052438       0.00347000      -0.00260000       0.00102900 
      47      -4.08394136      -0.02640789       4.07312737       0.00251900      -0.00429800       0.00066200 
      47      -6.14498292      -2.08687426      -0.00580554       0.00407000      -0.00301600       0.00165600 
      47      -4.08690508      -0.02861198      -0.00320256       0.00251300      -0.01272200      -0.00751400 
      47      -6.15470324      -0.02222887      -2.04271241       0.00020300       0.00245900      -0.00169100 
      47      -6.14877580      -0.01782069       6.10994744      -0.00001000       0.00178000      -0.00161600 
      47      -8.20981736      -2.07828706       2.03101453      -0.00049800       0.00168800      -0.00240700 
      47      -6.15173952      -0.02002478       2.03361751       0.00053400       0.00110900      -0.00193000 
      47      -4.09366168       2.03823750       2.03622050      -0.00012700       0.00228500      -0.00131600 
      47     -10.28583659      -2.05758358       4.06771029       0.00000700      -0.00000900      -0.00015300 
      47      -8.22775875       0.00067870       4.07031328       0.00003900       0.00020900      -0.00029700 
      47      -6.16968092       2.05894097       4.07291626       0.00038500       0.00027800      -0.00011000 
      47      -8.23072247      -0.00152540      -0.00601665      -0.00019000      -0.00007300       0.00001500 
      47      -6.17264463       2.05673688      -0.00341367       0.00003800      -0.00012900       0.00011300 
      47      -8.25162758       2.07523626      -2.04304783       0.00072200      -0.00144200       0.00210400 
      47      -8.24570015       2.07964445       6.10961202       0.00011300      -0.00173900       0.00219500 
      47     -10.30674170       0.01917808       2.03067912      -0.00004100      -0.00222700       0.00137000 
      47      -8.24866387       2.07744035       2.03328210      -0.00058800      -0.00117000       0.00188600 
      47      -6.19058603       4.13570263       2.03588508       0.00052500      -0.00185400       0.00247700 
      47      -4.14164811      -4.08647118       4.07131819      -0.00186300       0.00414100      -0.00078600 
      47      -2.08357027      -2.02820890       4.07392117      -0.00353500       0.00347300      -0.00121300 
      47      -4.14461183      -4.08867527      -0.00501173      -0.00206200       0.00481400      -0.00019900 
      47      -2.08653399      -2.03041300      -0.00240875      -0.01201200       0.00327800      -0.00932000 
      47      -0.02845615       0.02784928       0.00019423      -0.00228600      -0.00626800      -0.01017100 
30
Lattice="-4.119119390328899 -4.118728650562652 -4.081535892654421 -2.052150403445482 -2.0538540903097715 8.150056866378332 -6.171850193669301 6.172498736350646 -0.0012160222796847" Properties=Z:I:1:pos:R:3:vasp_force:R:3 uuid=4de59fde-43ab-446b-9f40-86fa854cd076 vasp_virial="-0.251107636583873 -0.16537105445085715 -0.05173541939168335 -0.16537105445085715 -0.04675483081902239 -0.2764016574596969 -0.05173541939168335 -0.2764016574596969 -0.027756842739787378" vasp_energy=-94.9652649 pbc="T T T"
      46      -4.11724031      -2.05974568      -2.04227211      -0.00525200      -0.00008400      -0.00496100 
      46      -4.11131288      -2.05533749       6.11038774      -0.00073900      -0.00594100      -0.00506200 
      46      -6.17235443      -4.11580386       2.03145483       0.00974500      -0.00052500      -0.00892900 
      46      -4.11427660      -2.05754158       2.03405782       0.00001400       0.00010400      -0.00019200 
      46      -2.05619876       0.00072070       2.03666080      -0.00005500       0.00977800      -0.00927200 
      47      -8.19772509      -4.14055853       4.05850129      -0.00987800      -0.01708100       0.05335100 
      47      -6.14201920      -2.08467017       4.07052438       0.00620100       0.00024500       0.00168100 
      47      -4.08394136      -0.02640789       4.07312737       0.00267000      -0.00419700      -0.00006100 
      47      -6.14498292      -2.08687426      -0.00580554       0.00349400      -0.00332800       0.00035100 
      47      -4.08690508      -0.02861198      -0.00320256       0.00568900      -0.00039900       0.00250400 
      47      -6.15470324      -0.02222887      -2.04271241      -0.00068300      -0.00371800      -0.00673500 
      47      -6.14877580      -0.01782069       6.10994744      -0.00602300       0.00170000      -0.00632100 
      47      -8.20981736      -2.07828706       2.03101453      -0.00074400       0.01116500      -0.01091700 
      47      -6.15173952      -0.02002478       2.03361751       0.00073800       0.00158300      -0.00204100 
      47      -4.09366168       2.03823750       2.03622050       0.00919100       0.00175000      -0.00958800 
      47     -10.28583659      -2.05758358       4.06771029      -0.00028900      -0.00024600       0.00116500 
      47      -8.22775875       0.00067870       4.07031328      -0.00001400       0.00027600      -0.00014000 
      47      -6.16968092       2.05894097       4.07291626       0.00003500       0.00035700      -0.00022100 
      47      -8.23072247      -0.00152540      -0.00601665      -0.00017700      -0.00037100      -0.00007700 
      47      -6.17264463       2.05673688      -0.00341367       0.00016900      -0.00002400       0.00037800 
      47      -8.25162758       2.07523626      -2.04304783       0.00006700      -0.00205700       0.00163400 
      47      -8.24570015       2.07964445       6.10961202       0.00030600      -0.00198200       0.00204700 
      47     -10.30674170       0.01917808       2.03067912      -0.00003500      -0.00197900       0.00110300 
      47      -8.24866387       2.07744035       2.03328210      -0.00058400      -0.00131400       0.00202300 
      47      -6.19058603       4.13570263       2.03588508       0.00039600      -0.00144200       0.00210000 
      47      -4.14164811      -4.08647118       4.07131819      -0.00234800       0.00345700      -0.00131600 
      47      -2.08357027      -2.02820890       4.07392117      -0.00342300       0.00371900      -0.00149200 
      47      -4.14461183      -4.08867527      -0.00501173      -0.00235500       0.00443000      -0.00112700 
      47      -2.08653399      -2.03041300      -0.00240875      -0.00322900       0.00323200      -0.00044000 
      47      -0.02845615       0.02784928       0.00019423      -0.00288700       0.00289200       0.00055600 
30
Lattice="-4.119119390328899 -4.118728650562652 -4.081535892654421 -2.052150403445482 -2.0538540903097715 8.150056866378332 -6.171850193669301 6.172498736350646 -0.0012160222796847" Properties=Z:I:1:pos:R:3:vasp_force:R:3 uuid=e90f04b8-7fee-40f2-80be-270fa0b22fae vasp_virial="-0.26725818888600583 -0.1524945684849381 -0.04980911777629988 -0.1524945684849381 -0.0623171500775315 -0.27719027758411563 -0.04980911777629988 -0.27719027758411563 -0.0321944469644879" vasp_energy=-94.9652047 pbc="T T T"
      46      -4.11724031      -2.05974568      -2.04227211      -0.00484700      -0.00021500      -0.00572100 
      46      -4.11131288      -2.05533749       6.11038774       0.00008500       0.00500500       0.00568900 
      46      -6.17235443      -4.11580386       2.03145483      -0.00544400      -0.00083900       0.00631700 
      46      -4.11427660      -2.05754158       2.03405782      -0.00004900       0.00005000       0.00000100 
      46      -2.05619876       0.00072070       2.03666080       0.00057800       0.00568000      -0.00627700 
      47      -8.20716773      -4.13586101       4.06792001       0.04508100      -0.04583100       0.00094000 
      47      -6.14201920      -2.08467017       4.07052438       0.00365000      -0.00380000       0.00054700 
      47      -4.08394136      -0.02640789       4.07312737       0.00266800      -0.00436300       0.00063300 
      47      -6.14498292      -2.08687426      -0.00580554       0.00361700      -0.00361100       0.00122500 
      47      -4.08690508      -0.02861198      -0.00320256       0.00307500      -0.00432200       0.00125400 
      47      -6.15470324      -0.02222887      -2.04271241       0.00037600       0.00701800       0.00332700 
      47      -6.14877580      -0.01782069       6.10994744      -0.00525800       0.00125100      -0.00710100 
      47      -8.20981736      -2.07828706       2.03101453       0.00042800       0.00677100      -0.00810900 
      47      -6.15173952      -0.02002478       2.03361751       0.00036500       0.00132300      -0.00189600 
      47      -4.09366168       2.03823750       2.03622050      -0.00499300       0.00129300       0.00429700 
      47     -10.28583659      -2.05758358       4.06771029      -0.00844400       0.00843900      -0.00001100 
      47      -8.22775875       0.00067870       4.07031328       0.00009200       0.00053800      -0.00019500 
      47      -6.16968092       2.05894097       4.07291626       0.00017800       0.00024100      -0.00038100 
      47      -8.23072247      -0.00152540      -0.00601665      -0.00033400      -0.00006500       0.00036700 
      47      -6.17264463       2.05673688      -0.00341367      -0.00043000      -0.00023100       0.00021200 
      47      -8.25162758       2.07523626      -2.04304783      -0.00014300      -0.00162900       0.00183200 
      47      -8.24570015       2.07964445       6.10961202      -0.00001500      -0.00159100       0.00199700 
      47     -10.30674170       0.01917808       2.03067912      -0.00057600      -0.00161000       0.00137100 
      47      -8.24866387       2.07744035       2.03328210      -0.00035600      -0.00130600       0.00188700 
      47      -6.19058603       4.13570263       2.03588508      -0.00014500      -0.00120500       0.00242500 
      47      -4.14164811      -4.08647118       4.07131819      -0.00285400       0.00363100      -0.00122200 
      47      -2.08357027      -2.02820890       4.07392117      -0.00353400       0.00367500      -0.00116900 
      47      -4.14461183      -4.08867527      -0.00501173      -0.00271400       0.00427700      -0.00070700 
      47      -2.08653399      -2.03041300      -0.00240875      -0.00296400       0.00354500      -0.00058800 
      47      -0.02845615       0.02784928       0.00019423      -0.01709300       0.01788100      -0.00094600 
30
Lattice="-4.119119390328899 -4.118728650562652 -4.081535892654421 -2.052150403445482 -2.0538540903097715 8.150056866378332 -6.171850193669301 6.172498736350646 -0.0012160222796847" Properties=Z:I:1:pos:R:3:vasp_force:R:3 uuid=9cec3cf5-e9e5-41d0-bc27-362c7889572b vasp_virial="-0.2363597938473045 -0.1793399732120776 -0.05060743404978933 -0.1793399732120776 -0.031392898641308196 -0.2762206626770434 -0.05060743404978933 -0.2762206626770434 -0.023975344602205725" vasp_energy=-94.96530679 pbc="T T T"
      46      -4.11724031      -2.05974568      -2.04227211       0.00567100       0.00081600       0.00581500 
      46      -4.11131288      -2.05533749       6.11038774      -0.00097000      -0.00554200      -0.00579100 
      46      -6.17235443      -4.11580386       2.03145483       0.00525500       0.00024400      -0.00571600 
      46      -4.11427660      -2.05754158       2.03405782      -0.00001100       0.00000900      -0.00000400 
      46      -2.05619876       0.00072070       2.03666080      -0.00044900      -0.00502700       0.00567200 
      47      -8.19302634      -4.15000388       4.06792279      -0.03872100       0.03798200       0.00099800 
      47      -6.14201920      -2.08467017       4.07052438       0.00221700      -0.00241900       0.00038900 
      47      -4.08394136      -0.02640789       4.07312737       0.00238400      -0.00410200       0.00083100 
      47      -6.14498292      -2.08687426      -0.00580554       0.00332700      -0.00335600       0.00105600 
      47      -4.08690508      -0.02861198      -0.00320256       0.00169800      -0.00288400       0.00139900 
      47      -6.15470324      -0.02222887      -2.04271241      -0.00114000      -0.00302700      -0.00741000 
      47      -6.14877580      -0.01782069       6.10994744       0.00475100       0.00279200       0.00358800 
      47      -8.20981736      -2.07828706       2.03101453      -0.00114800      -0.00337700       0.00316800 
      47      -6.15173952      -0.02002478       2.03361751       0.00046600       0.00120500      -0.00189100 
      47      -4.09366168       2.03823750       2.03622050       0.00510500       0.00292000      -0.00697600 
      47     -10.28583659      -2.05758358       4.06771029       0.00795300      -0.00794800       0.00000800 
      47      -8.22775875       0.00067870       4.07031328      -0.00021400      -0.00024300      -0.00034100 
      47      -6.16968092       2.05894097       4.07291626       0.00027900       0.00014300       0.00028900 
      47      -8.23072247      -0.00152540      -0.00601665      -0.00024400      -0.00020000      -0.00027900 
      47      -6.17264463       2.05673688      -0.00341367       0.00043400       0.00005200       0.00032000 
      47      -8.25162758       2.07523626      -2.04304783       0.00043600      -0.00233900       0.00154400 
      47      -8.24570015       2.07964445       6.10961202       0.00070300      -0.00219000       0.00221300 
      47     -10.30674170       0.01917808       2.03067912       0.00024800      -0.00252700       0.00143500 
      47      -8.24866387       2.07744035       2.03328210      -0.00059400      -0.00110500       0.00189500 
      47      -6.19058603       4.13570263       2.03588508       0.00078800      -0.00197500       0.00237900 
      47      -4.14164811      -4.08647118       4.07131819      -0.00201400       0.00372000      -0.00143700 
      47      -2.08357027      -2.02820890       4.07392117      -0.00353000       0.00340700      -0.00112000 
      47      -4.14461183      -4.08867527      -0.00501173      -0.00245600       0.00430700      -0.00075900 
      47      -2.08653399      -2.03041300      -0.00240875      -0.00305200       0.00276400      -0.00035200 
      47      -0.02845615       0.02784928       0.00019423       0.01282900      -0.01210100      -0.00092200 
30
Lattice="-4.119119390328899 -4.118728650562652 -4.081535892654421 -2.052150403445482 -2.0538540903097715 8.150056866378332 -6.171850193669301 6.172498736350646 -0.0012160222796847" Properties=Z:I:1:pos:R:3:vasp_force:R:3 uuid=6b30295c-6775-49ba-8253-790067290d22 vasp_virial="-0.252920816460098 -0.16469232401590658 -0.050148482993775154 -0.16469232401590658 -0.04668049367614684 -0.275945938453373 -0.050148482993775154 -0.275945938453373 -0.02808004770881145" vasp_energy=-94.9653025 pbc="T T T"
      46      -4.11724031      -2.05974568      -2.04227211       0.00094600       0.00082900       0.00034300 
      46      -4.11131288      -2.05533749       6.11038774      -0.00062400      -0.00013400       0.00011200 
      46      -6.17235443      -4.11580386       2.03145483      -0.00000400      -0.00050400       0.00031900 
      46      -4.11427660      -2.05754158       2.03405782      -0.00014800       0.00006900      -0.00003700 
      46      -2.05619876       0.00072070       2.03666080       0.00024900       0.00011600      -0.00029800 
      47      -8.20009704      -4.14293244       4.06792140       0.00288500      -0.01207500      -0.00789100 
      47      -6.14201920      -2.08467017       4.07052438       0.00342800      -0.00244900       0.00113600 
      47      -4.08394136      -0.02640789       4.07312737       0.00229400      -0.00454600       0.00087600 
      47      -6.14498292      -2.08687426      -0.00580554       0.00418400      -0.00305800       0.00181100 
      47      -4.08690508      -0.02861198      -0.00320256      -0.00606000      -0.00325600      -0.00713900 
      47      -6.16049448      -0.02801957      -2.04845082       0.02910600       0.03192300       0.02764200 
      47      -6.14877580      -0.01782069       6.10994744      -0.00826100      -0.00622200      -0.00132000 
      47      -8.20981736      -2.07828706       2.03101453      -0.00015400       0.00174900      -0.00266600 
      47      -6.15173952      -0.02002478       2.03361751       0.00060100       0.00140700      -0.00216600 
      47      -4.09366168       2.03823750       2.03622050      -0.00842700      -0.00632700      -0.00098100 
      47     -10.28583659      -2.05758358       4.06771029      -0.00832900       0.00056300      -0.00816300 
      47      -8.22775875       0.00067870       4.07031328       0.00066000       0.00055500       0.00039200 
      47      -6.16968092       2.05894097       4.07291626      -0.00001700      -0.00010000       0.00013900 
      47      -8.23072247      -0.00152540      -0.00601665       0.00024200       0.00051300       0.00064500 
      47      -6.17264463       2.05673688      -0.00341367       0.00051200      -0.00819200      -0.00757100 
      47      -8.25162758       2.07523626      -2.04304783       0.00048200      -0.00174600       0.00204500 
      47      -8.24570015       2.07964445       6.10961202       0.00055500      -0.00223300       0.00224000 
      47     -10.30674170       0.01917808       2.03067912      -0.00022300      -0.00195600       0.00125800 
      47      -8.24866387       2.07744035       2.03328210      -0.00025700      -0.00133000       0.00175600 
      47      -6.19058603       4.13570263       2.03588508       0.00004800      -0.00144700       0.00255200 
      47      -4.14164811      -4.08647118       4.07131819      -0.00235800       0.00366100      -0.00138400 
      47      -2.08357027      -2.02820890       4.07392117      -0.00340200       0.00358400      -0.00117700 
      47      -4.14461183      -4.08867527      -0.00501173      -0.00254800       0.00430200      -0.00078900 
      47      -2.08653399      -2.03041300      -0.00240875      -0.00288000       0.00303400      -0.00061800 
      47      -0.02845615       0.02784928       0.00019423      -0.00249900       0.00327000      -0.00106800 
30
Lattice="-4.119119390328899 -4.118728650562652 -4.081535892654421 -2.052150403445482 -2.0538540903097715 8.150056866378332 -6.171850193669301 6.172498736350646 -0.0012160222796847" Properties=Z:I:1:pos:R:3:vasp_force:R:3 uuid=328f453f-d931-464c-bc57-e3572bc3dd45 vasp_virial="-0.25079412776391957 -0.1645598099786067 -0.049818813925370596 -0.1645598099786067 -0.046745134669951664 -0.27605259609315097 -0.049818813925370596 -0.27605259609315097 -0.028122064354784582" vasp_energy=-94.96529104 pbc="T T T"
      46      -4.11724031      -2.05974568      -2.04227211      -0.00017700      -0.00029900      -0.00039900 
      46      -4.11131288      -2.05533749       6.11038774      -0.00015100      -0.00036800      -0.00006800 
      46      -6.17235443      -4.11580386       2.03145483      -0.00020900      -0.00019200       0.00043000 
      46      -4.11427660      -2.05754158       2.03405782       0.00016500      -0.00007000       0.00003100 
      46      -2.05619876       0.00072070       2.03666080       0.00000100       0.00058500      -0.00045500 
      47      -8.20009704      -4.14293244       4.06792140       0.00208000       0.00532600       0.00941600 
      47      -6.14201920      -2.08467017       4.07052438       0.00251100      -0.00380200      -0.00017100 
      47      -4.08394136      -0.02640789       4.07312737       0.00283300      -0.00397900       0.00058200 
      47      -6.14498292      -2.08687426      -0.00580554       0.00283800      -0.00393600       0.00044300 
      47      -4.08690508      -0.02861198      -0.00320256       0.01121900      -0.00409200       0.01012300 
      47      -6.14891199      -0.01643818      -2.03697401      -0.03027300      -0.02813100      -0.03173700 
      47      -6.14877580      -0.01782069       6.10994744       0.00825400       0.01058400      -0.00211600 
      47      -8.20981736      -2.07828706       2.03101453      -0.00053100       0.00149500      -0.00214000 
      47      -6.15173952      -0.02002478       2.03361751       0.00030000       0.00106000      -0.00162300 
      47      -4.09366168       2.03823750       2.03622050       0.00837800       0.01019500      -0.00178000 
      47     -10.28583659      -2.05758358       4.06771029       0.00801700      -0.00050000       0.00784100 
      47      -8.22775875       0.00067870       4.07031328      -0.00070700      -0.00034300      -0.00090200 
      47      -6.16968092       2.05894097       4.07291626       0.00055000       0.00042900      -0.00023700 
      47      -8.23072247      -0.00152540      -0.00601665      -0.00071800      -0.00083900      -0.00058000 
      47      -6.17264463       2.05673688      -0.00341367      -0.00049800       0.00828200       0.00841500 
      47      -8.25162758       2.07523626      -2.04304783      -0.00010000      -0.00229500       0.00132600 
      47      -8.24570015       2.07964445       6.10961202       0.00020400      -0.00160500       0.00196800 
      47     -10.30674170       0.01917808       2.03067912      -0.00003200      -0.00223900       0.00155300 
      47      -8.24866387       2.07744035       2.03328210      -0.00062000      -0.00113600       0.00202300 
      47      -6.19058603       4.13570263       2.03588508       0.00067300      -0.00178500       0.00224800 
      47      -4.14164811      -4.08647118       4.07131819      -0.00243400       0.00363100      -0.00127300 
      47      -2.08357027      -2.02820890       4.07392117      -0.00358900       0.00344200      -0.00111400 
      47      -4.14461183      -4.08867527      -0.00501173      -0.00254800       0.00422600      -0.00067900 
      47      -2.08653399      -2.03041300      -0.00240875      -0.00305900       0.00321600      -0.00032600 
      47      -0.02845615       0.02784928       0.00019423      -0.00237700       0.00314200      -0.00080000 
30
Lattice="-4.119119390328899 -4.118728650562652 -4.081535892654421 -2.052150403445482 -2.0538540903097715 8.150056866378332 -6.171850193669301 6.172498736350646 -0.0012160222796847" Properties=Z:I:1:pos:R:3:vasp_force:R:3 uuid=6905dd0a-f882-4cb4-a3eb-d29bfec6ec9f vasp_virial="-0.25257821919293244 -0.1651609712209915 -0.05032947777642863 -0.1651609712209915 -0.04707157168866598 -0.2769931225530109 -0.05032947777642863 -0.2769931225530109 -0.028367700131242877" vasp_energy=-94.96527028 pbc="T T T"
      46      -4.11724031      -2.05974568      -2.04227211       0.00059200       0.00047900      -0.00072400 
      46      -4.11131288      -2.05533749       6.11038774      -0.00044900      -0.00025100      -0.00013800 
      46      -6.17235443      -4.11580386       2.03145483      -0.00037500      -0.00007700       0.00036700 
      46      -4.11427660      -2.05754158       2.03405782       0.00022700      -0.00032400       0.00003300 
      46      -2.05619876       0.00072070       2.03666080       0.00012800       0.00032500      -0.00055000 
      47      -8.20009704      -4.14293244       4.06792140       0.00278200       0.00228900       0.00549500 
      47      -6.14201920      -2.08467017       4.07052438      -0.00594300      -0.00276200       0.00865600 
      47      -4.08394136      -0.02640789       4.07312737       0.00218900      -0.00462700       0.00082300 
      47      -6.14498292      -2.08687426      -0.00580554       0.00385600      -0.01283700       0.00967100 
      47      -4.08690508      -0.02861198      -0.00320256       0.00803200      -0.00325300       0.00589100 
      47      -6.15707518      -0.02460279      -2.03329231       0.01237300       0.01433100      -0.04964800 
      47      -6.14877580      -0.01782069       6.10994744      -0.00336400      -0.00123700      -0.00274600 
      47      -8.20981736      -2.07828706       2.03101453      -0.00043600       0.00151800      -0.00169900 
      47      -6.15173952      -0.02002478       2.03361751       0.00033000       0.00115100      -0.00119500 
      47      -4.09366168       2.03823750       2.03622050      -0.00315700      -0.00111400      -0.00250100 
      47     -10.28583659      -2.05758358       4.06771029       0.00524100       0.00034600       0.00412400 
      47      -8.22775875       0.00067870       4.07031328       0.00038900      -0.00835000       0.00730800 
      47      -6.16968092       2.05894097       4.07291626      -0.00009800      -0.00021000      -0.00003000 
      47      -8.23072247      -0.00152540      -0.00601665      -0.00910000       0.00033800       0.00794300 
      47      -6.17264463       2.05673688      -0.00341367       0.00032600       0.00523000       0.00450700 
      47      -8.25162758       2.07523626      -2.04304783       0.00038000      -0.00179700       0.00084200 
      47      -8.24570015       2.07964445       6.10961202       0.00031600      -0.00205500       0.00195600 
      47     -10.30674170       0.01917808       2.03067912       0.00006600      -0.00227000       0.00157200 
      47      -8.24866387       2.07744035       2.03328210      -0.00059500      -0.00099700       0.00199300 
      47      -6.19058603       4.13570263       2.03588508       0.00018900      -0.00166300       0.00223900 
      47      -4.14164811      -4.08647118       4.07131819      -0.00250900       0.00349100      -0.00106800 
      47      -2.08357027      -2.02820890       4.07392117      -0.00338900       0.00362500      -0.00130600 
      47      -4.14461183      -4.08867527      -0.00501173      -0.00271900       0.00416700      -0.00047500 
      47      -2.08653399      -2.03041300      -0.00240875      -0.00297500       0.00330500      -0.00044400 
      47      -0.02845615       0.02784928       0.00019423      -0.00230600       0.00323100      -0.00089700 
30
Lattice="-4.119119390328899 -4.118728650562652 -4.081535892654421 -2.052150403445482 -2.0538540903097715 8.150056866378332 -6.171850193669301 6.172498736350646 -0.0012160222796847" Properties=Z:I:1:pos:R:3:vasp_force:R:3 uuid=fac5f6ca-8e11-4a0c-bb47-a35d147fd174 vasp_virial="-0.2521903732301036 -0.16487331879856007 -0.0510017441119987 -0.16487331879856007 -0.04729135106760235 -0.2767991995715965 -0.0510017441119987 -0.2767991995715965 -0.028296595038057582" vasp_energy=-94.9653212 pbc="T T T"
      46      -4.11724031      -2.05974568      -2.04227211       0.00015700       0.00006400       0.00062000 
      46      -4.11131288      -2.05533749       6.11038774      -0.00034900      -0.00023500       0.00013800 
      46      -6.17235443      -4.11580386       2.03145483       0.00014000      -0.00061000       0.00033600 
      46      -4.11427660      -2.05754158       2.03405782      -0.00022800       0.00033800      -0.00008800 
      46      -2.05619876       0.00072070       2.03666080       0.00009700       0.00039200      -0.00025300 
      47      -8.20009704      -4.14293244       4.06792140       0.00209200      -0.00882100      -0.00375300 
      47      -6.14201920      -2.08467017       4.07052438       0.01227800      -0.00349800      -0.00808500 
      47      -4.08394136      -0.02640789       4.07312737       0.00291500      -0.00388400       0.00058900 
      47      -6.14498292      -2.08687426      -0.00580554       0.00316900       0.00543900      -0.00711800 
      47      -4.08690508      -0.02861198      -0.00320256      -0.00309600      -0.00401200      -0.00321800 
      47      -6.15233129      -0.01985496      -2.05213252      -0.01290500      -0.01094900       0.04692500 
      47      -6.14877580      -0.01782069       6.10994744       0.00304000       0.00531400      -0.00064400 
      47      -8.20981736      -2.07828706       2.03101453      -0.00027500       0.00173500      -0.00315300 
      47      -6.15173952      -0.02002478       2.03361751       0.00055200       0.00133400      -0.00264200 
      47      -4.09366168       2.03823750       2.03622050       0.00338500       0.00529300      -0.00040100 
      47     -10.28583659      -2.05758358       4.06771029      -0.00538100      -0.00033800      -0.00424500 
      47      -8.22775875       0.00067870       4.07031328      -0.00048600       0.00898000      -0.00819300 
      47      -6.16968092       2.05894097       4.07291626       0.00060900       0.00055300      -0.00011500 
      47      -8.23072247      -0.00152540      -0.00601665       0.00819600      -0.00062100      -0.00759500 
      47      -6.17264463       2.05673688      -0.00341367      -0.00026300      -0.00532000      -0.00395900 
      47      -8.25162758       2.07523626      -2.04304783      -0.00002200      -0.00222800       0.00248200 