  30
   1   1
     7.451940396672414     0.108832399603171    -0.220840969737698
     0.141982136892583     7.468310684539246     0.263721767231958
    -0.203685857423961     0.249651840013165     7.371916241743373
   1   2
    -0.975915901120554    -1.051920211303528     0.108448828755494
    -1.171263394743769    -0.998023087851217    -0.023393234952235
    -0.000622672820415    -0.035753725973342     0.167256283315407
   1   3
     0.061239409609331     0.051584599947863    -0.056143738497176
     0.058515767973275     0.082864463345970     0.025822479083365
    -0.058652921193646     0.017968572709188    -0.008723896773349
   1   4
     0.061292891001564     0.059358239967327    -0.057919355732312
     0.050601094881553     0.082792044775184     0.017207343629826
    -0.056773065344052     0.026748646279295    -0.008951646515992
   1   5
    -0.975815355874366    -1.170508514374867     0.000028683575357
    -1.053007013286902    -0.997984306131723    -0.036578545896038
     0.108257144773648    -0.022429272784980     0.166561312917890
   1   6
     0.113361122501579     0.018338860874390     0.031378209141261
     0.065265889435333    -1.024826437730509    -1.187405052516210
     0.028069433268562    -1.165003786021027    -0.970329381672898
   1   7
    -0.053541764059543     0.013653433080320    -0.036778939934705
     0.002072896403731    -0.037583836857368    -0.012307356558168
    -0.021008243401273    -0.038194533934180    -0.022343466831903
   1   8
    -0.013956566315399     0.050932327752471    -0.033976926565988
     0.043792640710545    -0.039179975053699     0.032559323044766
    -0.014103258322332     0.013271918654427     0.034573528408789
   1   9
    -0.053578048217355    -0.037939334287721     0.051057394840394
    -0.029279932489605    -0.003708007378115    -0.001989655546027
     0.041781977745353     0.019821139106870    -0.005423892389903
   1  10
    -0.979832633617410     0.016948604309659     1.165745157559827
    -0.021829479069978     0.107912958259018    -0.007770829157303
     1.150988216280016    -0.020889447843202    -0.980501657062392
   1  11
    -0.004870662286921     0.042990650614988     0.065926384575335
     0.020342298150843    -0.097654957911675    -0.058391514460383
     0.055597274163649    -0.051689256539535    -0.061010625909951
   1  12
    -0.897030150152905     0.901061740545829     0.039537832674808
     0.879467883921632    -0.877144252045235    -0.045399774189031
    -0.038489963390475     0.049878849805867     0.111061653060389
   1  13
    -0.032001252603201    -0.057898851829348    -0.038099340529195
    -0.026462295927824     0.055214850754233     0.024996907001405
     0.007295990384098    -0.025853886252085     0.023002830165272
   1  14
     0.019103367054166     0.002083041070149     0.020670432856186
     0.009012212116589     0.008587191177456    -0.037109863418409
     0.006679638447778     0.000982039990881    -0.084225465583579
   1  15
     0.045582673436263    -0.014197495890503    -0.014565399782828
    -0.011324540021000     0.042004039979152     0.041239589489621
    -0.027343099455871     0.018688486974670     0.027885382679645
   1  16
     0.089429287378756    -0.018907251038369     0.050141046419180
     0.042486903041979    -1.010636722093347     1.159239329584442
     0.015688858644523     1.174078974476799    -1.041917947611243
   1  17
    -1.070207060361081    -0.019533647064445    -1.184858235151618
    -0.068718331579095     0.079729555518603    -0.028012775274224
    -1.211393991100677    -0.010071966416284    -1.033639156775121
   1  18
    -0.921548767553017    -0.073351298487272    -1.082164574413102
    -0.063672672599994     0.056244364217576    -0.060275012602809
    -0.950370801239284    -0.060551449884764    -0.899059089983581
   1  19
     0.080788010497418     0.034339664684581     0.014372990444015
     0.005643892659223    -0.848616423256335     1.007227952809449
     0.009264967793470     0.910855323376820    -0.870324038157973
   1  20
    -0.003724123162674    -0.072702501054895     0.044760574388590
    -0.078559635883213    -0.101846278593022     0.070895463207448
     0.052953240885603     0.064949010501911    -0.037511281317470
   1  21
    -0.048998135069176    -0.033883132420500    -0.067302758014781
    -0.035445610250505     0.062340648459986    -0.011561381183773
    -0.067839225053411    -0.011077905108349    -0.020419590223840
   1  22
    -1.055484591999369     1.223657550067740     0.045102176011395
     1.222360992872542    -1.093884293820903    -0.081467630227687
     0.045009850935385    -0.081463617686205     0.151392281899704
   1  23
    -0.028681346355573     0.007808286583844     0.000580994966300
     0.006860887616597    -0.103073088543672     0.031335084091645
     0.000457270612330     0.031473977039769    -0.034099836256138
   1  24
     0.007887175238710    -0.017061954263797     0.045369435799572
    -0.018134342540051     0.019943434965927     0.045645925640240
     0.044782603225004     0.046118627121602    -0.026734128453058
   1  25
     0.006113007268271    -0.000034995983412    -0.012483142804198
    -0.001106988047686    -0.003494930898724    -0.001962625665174
    -0.012745274189641    -0.001850315775915    -0.095832798948673
   1  26
     0.000920287146485     0.024078631760232    -0.010802376749085
     0.015492238083506    -0.027181140927479     0.008728225627254
    -0.016110714095738     0.010674714977668     0.007754733505226
   1  27
    -0.036839761158826     0.011002445452512    -0.013256519385083
     0.025474204213744    -0.011820007692558    -0.019989005098508
    -0.012966271520707    -0.008476049999954     0.002378069766226
   1  28
     0.154031296572594     0.016888268721995     0.022723643889223
     0.017157836916329    -0.952865518629080    -1.123836506329708
     0.037450357916239    -1.080685857881469    -0.931519998974244
   1  29
    -0.924666377318721    -0.012953308491023     1.114436794320375
    -0.009872556424377     0.159995782540047    -0.007504690226887
     1.075301688333854    -0.023395678024657    -0.940479632966354
   1  30
    -0.014997877684922    -0.002666696049719     0.008914181460181
    -0.017852138609748     0.003585166107849     0.016334472609772
     0.012529514610018     0.002224343261199     0.009266957068816
   2   1
    -0.975815355874366    -1.170508514374867     0.000028683575357
    -1.053007013286902    -0.997984306131723    -0.036578545896038
     0.108257144773648    -0.022429272784980     0.166561312917890
   2   2
     7.451940396672414     0.108832399603171    -0.220840969737697
     0.141982136892583     7.468310684539246     0.263721767231958
    -0.203685857423960     0.249651840013165     7.371916241743372
   2   3
    -0.975915901120554    -1.051920211303528     0.108448828755494
    -1.171263394743769    -0.998023087851217    -0.023393234952235
    -0.000622672820415    -0.035753725973342     0.167256283315407
   2   4
     0.061239409609331     0.051584599947863    -0.056143738497176
     0.058515767973275     0.082864463345970     0.025822479083365
    -0.058652921193646     0.017968572709188    -0.008723896773349
   2   5
     0.061292891001564     0.059358239967326    -0.057919355732312
     0.050601094881553     0.082792044775184     0.017207343629826
    -0.056773065344052     0.026748646279295    -0.008951646515992
   2   6
    -0.979832633617410     0.016948604309659     1.165745157559826
    -0.021829479069978     0.107912958259018    -0.007770829157303
     1.150988216280016    -0.020889447843202    -0.980501657062392
   2   7
     0.113361122501579     0.018338860874390     0.031378209141261
     0.065265889435333    -1.024826437730509    -1.187405052516209
     0.028069433268562    -1.165003786021027    -0.970329381672898
   2   8
    -0.053541764059543     0.013653433080320    -0.036778939934705
     0.002072896403731    -0.037583836857368    -0.012307356558168
    -0.021008243401273    -0.038194533934180    -0.022343466831903
   2   9
    -0.013956566315399     0.050932327752471    -0.033976926565988
     0.043792640710545    -0.039179975053699     0.032559323044766
    -0.014103258322332     0.013271918654427     0.034573528408789
   2  10
    -0.053578048217355    -0.037939334287721     0.051057394840394
    -0.029279932489605    -0.003708007378115    -0.001989655546027
     0.041781977745353     0.019821139106870    -0.005423892389903
   2  11
     0.045582673436263    -0.014197495890503    -0.014565399782828
    -0.011324540021000     0.042004039979152     0.041239589489621
    -0.027343099455871     0.018688486974670     0.027885382679645
   2  12
    -0.004870662286921     0.042990650614988     0.065926384575335
     0.020342298150843    -0.097654957911675    -0.058391514460383
     0.055597274163649    -0.051689256539535    -0.061010625909951
   2  13
    -0.897030150152905     0.901061740545829     0.039537832674808
     0.879467883921632    -0.877144252045235    -0.045399774189031
    -0.038489963390475     0.049878849805867     0.111061653060389
   2  14
    -0.032001252603201    -0.057898851829348    -0.038099340529195
    -0.026462295927824     0.055214850754233     0.024996907001405
     0.007295990384098    -0.025853886252085     0.023002830165272
   2  15
     0.019103367054166     0.002083041070149     0.020670432856186
     0.009012212116589     0.008587191177456    -0.037109863418409
     0.006679638447779     0.000982039990881    -0.084225465583579
   2  16
    -0.003724123162674    -0.072702501054895     0.044760574388590
    -0.078559635883213    -0.101846278593022     0.070895463207448
     0.052953240885603     0.064949010501911    -0.037511281317470
   2  17
     0.089429287378756    -0.018907251038369     0.050141046419180
     0.042486903041979    -1.010636722093347     1.159239329584442
     0.015688858644523     1.174078974476798    -1.041917947611243
   2  18
    -1.070207060361081    -0.019533647064446    -1.184858235151618
    -0.068718331579095     0.079729555518603    -0.028012775274224
    -1.211393991100677    -0.010071966416284    -1.033639156775121
   2  19
    -0.921548767553017    -0.073351298487272    -1.082164574413102
    -0.063672672599994     0.056244364217576    -0.060275012602809
    -0.950370801239284    -0.060551449884764    -0.899059089983581
   2  20
     0.080788010497418     0.034339664684581     0.014372990444015
     0.005643892659223    -0.848616423256335     1.007227952809449
     0.009264967793470     0.910855323376820    -0.870324038157973
   2  21
     0.006113007268271    -0.000034995983412    -0.012483142804198
    -0.001106988047686    -0.003494930898724    -0.001962625665174
    -0.012745274189641    -0.001850315775915    -0.095832798948673
   2  22
    -0.048998135069176    -0.033883132420500    -0.067302758014781
    -0.035445610250505     0.062340648459986    -0.011561381183773
    -0.067839225053411    -0.011077905108349    -0.020419590223840
   2  23
    -1.055484591999369     1.223657550067740     0.045102176011395
     1.222360992872542    -1.093884293820903    -0.081467630227687
     0.045009850935385    -0.081463617686205     0.151392281899704
   2  24
    -0.028681346355573     0.007808286583844     0.000580994966300
     0.006860887616597    -0.103073088543672     0.031335084091645
     0.000457270612330     0.031473977039769    -0.034099836256138
   2  25
     0.007887175238710    -0.017061954263797     0.045369435799572
    -0.018134342540051     0.019943434965927     0.045645925640240
     0.044782603225004     0.046118627121602    -0.026734128453058
   2  26
    -0.014997877684922    -0.002666696049719     0.008914181460181
    -0.017852138609748     0.003585166107849     0.016334472609772
     0.012529514610018     0.002224343261199     0.009266957068816
   2  27
     0.000920287146485     0.024078631760232    -0.010802376749085
     0.015492238083506    -0.027181140927479     0.008728225627254
    -0.016110714095738     0.010674714977668     0.007754733505226
   2  28
    -0.036839761158826     0.011002445452512    -0.013256519385083
     0.025474204213744    -0.011820007692558    -0.019989005098508
    -0.012966271520707    -0.008476049999954     0.002378069766226
   2  29
     0.154031296572594     0.016888268721995     0.022723643889223
     0.017157836916330    -0.952865518629081    -1.123836506329708
     0.037450357916239    -1.080685857881469    -0.931519998974243
   2  30
    -0.924666377318721    -0.012953308491023     1.114436794320375
    -0.009872556424377     0.159995782540047    -0.007504690226887
     1.075301688333854    -0.023395678024657    -0.940479632966354
   3   1
     0.061292891001564     0.059358239967326    -0.057919355732312
     0.050601094881553     0.082792044775184     0.017207343629826
    -0.056773065344052     0.026748646279295    -0.008951646515992
   3   2
    -0.975815355874366    -1.170508514374867     0.000028683575357
    -1.053007013286902    -0.997984306131723    -0.036578545896038
     0.108257144773648    -0.022429272784980     0.166561312917890
   3   3
     7.451940396672414     0.108832399603171    -0.220840969737697
     0.141982136892583     7.468310684539246     0.263721767231958
    -0.203685857423960     0.249651840013165     7.371916241743372
   3   4
    -0.975915901120554    -1.051920211303528     0.108448828755494
    -1.171263394743769    -0.998023087851217    -0.023393234952235
    -0.000622672820415    -0.035753725973342     0.167256283315407
   3   5
     0.061239409609331     0.051584599947863    -0.056143738497176
     0.058515767973275     0.082864463345970     0.025822479083365
    -0.058652921193646     0.017968572709188    -0.008723896773349
   3   6
    -0.053578048217355    -0.037939334287721     0.051057394840394
    -0.029279932489605    -0.003708007378115    -0.001989655546027
     0.041781977745353     0.019821139106870    -0.005423892389903
   3   7
    -0.979832633617410     0.016948604309659     1.165745157559826
    -0.021829479069978     0.107912958259018    -0.007770829157303
     1.150988216280016    -0.020889447843202    -0.980501657062392
   3   8
     0.113361122501579     0.018338860874390     0.031378209141261
     0.065265889435333    -1.024826437730509    -1.187405052516209
     0.028069433268562    -1.165003786021027    -0.970329381672898
   3   9
    -0.053541764059543     0.013653433080320    -0.036778939934705
     0.002072896403731    -0.037583836857368    -0.012307356558168
    -0.021008243401273    -0.038194533934180    -0.022343466831903
   3  10
    -0.013956566315399     0.050932327752471    -0.033976926565988
     0.043792640710545    -0.039179975053699     0.032559323044766
    -0.014103258322332     0.013271918654427     0.034573528408789
   3  11
     0.019103367054166     0.002083041070149     0.020670432856186
     0.009012212116589     0.008587191177456    -0.037109863418409
     0.006679638447779     0.000982039990881    -0.084225465583579
   3  12
     0.045582673436263    -0.014197495890503    -0.014565399782828
    -0.011324540021000     0.042004039979152     0.041239589489621
    -0.027343099455871     0.018688486974670     0.027885382679645
   3  13
    -0.004870662286921     0.042990650614988     0.065926384575335
     0.020342298150843    -0.097654957911675    -0.058391514460383
     0.055597274163649    -0.051689256539535    -0.061010625909951
   3  14
    -0.897030150152905     0.901061740545829     0.039537832674808
     0.879467883921632    -0.877144252045235    -0.045399774189031
    -0.038489963390475     0.049878849805867     0.111061653060389
   3  15
    -0.032001252603201    -0.057898851829348    -0.038099340529195
    -0.026462295927824     0.055214850754233     0.024996907001405
     0.007295990384098    -0.025853886252085     0.023002830165272
   3  16
     0.080788010497418     0.034339664684581     0.014372990444015
     0.005643892659223    -0.848616423256335     1.007227952809449
     0.009264967793470     0.910855323376820    -0.870324038157973
   3  17
    -0.003724123162674    -0.072702501054895     0.044760574388590
    -0.078559635883213    -0.101846278593022     0.070895463207448
     0.052953240885603     0.064949010501911    -0.037511281317470
   3  18
     0.089429287378756    -0.018907251038369     0.050141046419180
     0.042486903041979    -1.010636722093347     1.159239329584442
     0.015688858644523     1.174078974476798    -1.041917947611243
   3  19
    -1.070207060361081    -0.019533647064446    -1.184858235151618
    -0.068718331579095     0.079729555518603    -0.028012775274224
    -1.211393991100677    -0.010071966416284    -1.033639156775121
   3  20
    -0.921548767553017    -0.073351298487272    -1.082164574413102
    -0.063672672599994     0.056244364217576    -0.060275012602809
    -0.950370801239284    -0.060551449884764    -0.899059089983581
   3  21
     0.007887175238710    -0.017061954263797     0.045369435799572
    -0.018134342540051     0.019943434965927     0.045645925640240
     0.044782603225004     0.046118627121602    -0.026734128453058
   3  22
     0.006113007268271    -0.000034995983412    -0.012483142804198
    -0.001106988047686    -0.003494930898724    -0.001962625665174
    -0.012745274189641    -0.001850315775915    -0.095832798948673
   3  23
    -0.048998135069176    -0.033883132420500    -0.067302758014781
    -0.035445610250505     0.062340648459986    -0.011561381183773
    -0.067839225053411    -0.011077905108349    -0.020419590223840
   3  24
    -1.055484591999369     1.223657550067740     0.045102176011395
     1.222360992872542    -1.093884293820903    -0.081467630227687
     0.045009850935385    -0.081463617686205     0.151392281899704
   3  25
    -0.028681346355573     0.007808286583844     0.000580994966300
     0.006860887616597    -0.103073088543672     0.031335084091645
     0.000457270612330     0.031473977039769    -0.034099836256138
   3  26
    -0.924666377318721    -0.012953308491023     1.114436794320375
    -0.009872556424377     0.159995782540047    -0.007504690226887
     1.075301688333854    -0.023395678024657    -0.940479632966354
   3  27
    -0.014997877684922    -0.002666696049719     0.008914181460181
    -0.017852138609748     0.003585166107849     0.016334472609772
     0.012529514610018     0.002224343261199     0.009266957068816
   3  28
     0.000920287146485     0.024078631760232    -0.010802376749085
     0.015492238083506    -0.027181140927479     0.008728225627254
    -0.016110714095738     0.010674714977668     0.007754733505226
   3  29
    -0.036839761158826     0.011002445452512    -0.013256519385083
     0.025474204213744    -0.011820007692558    -0.019989005098508
    -0.012966271520707    -0.008476049999954     0.002378069766226
   3  30
     0.154031296572594     0.016888268721995     0.022723643889223
     0.017157836916330    -0.952865518629081    -1.123836506329708
     0.037450357916239    -1.080685857881469    -0.931519998974243
   4   1
     0.061239409609331     0.051584599947863    -0.056143738497176
     0.058515767973275     0.082864463345970     0.025822479083365
    -0.058652921193646     0.017968572709188    -0.008723896773349
   4   2
     0.061292891001564     0.059358239967326    -0.057919355732312
     0.050601094881553     0.082792044775184     0.017207343629826
    -0.056773065344052     0.026748646279295    -0.008951646515992
   4   3
    -0.975815355874366    -1.170508514374867     0.000028683575357
    -1.053007013286902    -0.997984306131723    -0.036578545896038
     0.108257144773648    -0.022429272784980     0.166561312917890
   4   4
     7.451940396672414     0.108832399603171    -0.220840969737697
     0.141982136892583     7.468310684539246     0.263721767231958
    -0.203685857423960     0.249651840013165     7.371916241743372
   4   5
    -0.975915901120554    -1.051920211303528     0.108448828755494
    -1.171263394743769    -0.998023087851217    -0.023393234952235
    -0.000622672820415    -0.035753725973342     0.167256283315407
   4   6
    -0.013956566315399     0.050932327752471    -0.033976926565988
     0.043792640710545    -0.039179975053699     0.032559323044766
    -0.014103258322332     0.013271918654427     0.034573528408789
   4   7
    -0.053578048217355    -0.037939334287721     0.051057394840394
    -0.029279932489605    -0.003708007378115    -0.001989655546027
     0.041781977745353     0.019821139106870    -0.005423892389903
   4   8
    -0.979832633617410     0.016948604309659     1.165745157559826
    -0.021829479069978     0.107912958259018    -0.007770829157303
     1.150988216280016    -0.020889447843202    -0.980501657062392
   4   9
     0.113361122501579     0.018338860874390     0.031378209141261
     0.065265889435333    -1.024826437730509    -1.187405052516209
     0.028069433268562    -1.165003786021027    -0.970329381672898
   4  10
    -0.053541764059543     0.013653433080320    -0.036778939934705
     0.002072896403731    -0.037583836857368    -0.012307356558168
    -0.021008243401273    -0.038194533934180    -0.022343466831903
   4  11
    -0.032001252603201    -0.057898851829348    -0.038099340529195
    -0.026462295927824     0.055214850754233     0.024996907001405
     0.007295990384098    -0.025853886252085     0.023002830165272
   4  12
     0.019103367054166     0.002083041070149     0.020670432856186
     0.009012212116589     0.008587191177456    -0.037109863418409
     0.006679638447779     0.000982039990881    -0.084225465583579
   4  13
     0.045582673436263    -0.014197495890503    -0.014565399782828
    -0.011324540021000     0.042004039979152     0.041239589489621
    -0.027343099455871     0.018688486974670     0.027885382679645
   4  14
    -0.004870662286921     0.042990650614988     0.065926384575335
     0.020342298150843    -0.097654957911675    -0.058391514460383
     0.055597274163649    -0.051689256539535    -0.061010625909951
   4  15
    -0.897030150152905     0.901061740545829     0.039537832674808
     0.879467883921632    -0.877144252045235    -0.045399774189031
    -0.038489963390475     0.049878849805867     0.111061653060389
   4  16
    -0.921548767553017    -0.073351298487272    -1.082164574413102
    -0.063672672599994     0.056244364217576    -0.060275012602809
    -0.950370801239284    -0.060551449884764    -0.899059089983581
   4  17
     0.080788010497418     0.034339664684581     0.014372990444015
     0.005643892659223    -0.848616423256335     1.007227952809449
     0.009264967793470     0.910855323376820    -0.870324038157973
   4  18
    -0.003724123162674    -0.072702501054895     0.044760574388590
    -0.078559635883213    -0.101846278593022     0.070895463207448
     0.052953240885603     0.064949010501911    -0.037511281317470
   4  19
     0.089429287378756    -0.018907251038369     0.050141046419180
     0.042486903041979    -1.010636722093347     1.159239329584442
     0.015688858644523     1.174078974476798    -1.041917947611243
   4  20
    -1.070207060361081    -0.019533647064446    -1.184858235151618
    -0.068718331579095     0.079729555518603    -0.028012775274224
    -1.211393991100677    -0.010071966416284    -1.033639156775121
   4  21
    -0.028681346355573     0.007808286583844     0.000580994966300
     0.006860887616597    -0.103073088543672     0.031335084091645
     0.000457270612330     0.031473977039769    -0.034099836256138
   4  22
     0.007887175238710    -0.017061954263797     0.045369435799572
    -0.018134342540051     0.019943434965927     0.045645925640240
     0.044782603225004     0.046118627121602    -0.026734128453058
   4  23
     0.006113007268271    -0.000034995983412    -0.012483142804198
    -0.001106988047686    -0.003494930898724    -0.001962625665174
    -0.012745274189641    -0.001850315775915    -0.095832798948673
   4  24
    -0.048998135069176    -0.033883132420500    -0.067302758014781
    -0.035445610250505     0.062340648459986    -0.011561381183773
    -0.067839225053411    -0.011077905108349    -0.020419590223840
   4  25
    -1.055484591999369     1.223657550067740     0.045102176011395
     1.222360992872542    -1.093884293820903    -0.081467630227687
     0.045009850935385    -0.081463617686205     0.151392281899704
   4  26
     0.154031296572594     0.016888268721995     0.022723643889223
     0.017157836916330    -0.952865518629081    -1.123836506329708
     0.037450357916239    -1.080685857881469    -0.931519998974243
   4  27
    -0.924666377318721    -0.012953308491023     1.114436794320375
    -0.009872556424377     0.159995782540047    -0.007504690226887
     1.075301688333854    -0.023395678024657    -0.940479632966354
   4  28
    -0.014997877684922    -0.002666696049719     0.008914181460181
    -0.017852138609748     0.003585166107849     0.016334472609772
     0.012529514610018     0.002224343261199     0.009266957068816
   4  29
     0.000920287146485     0.024078631760232    -0.010802376749085
     0.015492238083506    -0.027181140927479     0.008728225627254
    -0.016110714095738     0.010674714977668     0.007754733505226
   4  30
    -0.036839761158826     0.011002445452512    -0.013256519385083
     0.025474204213744    -0.011820007692558    -0.019989005098508
    -0.012966271520707    -0.008476049999954     0.002378069766226
   5   1
    -0.975915901120554    -1.051920211303528     0.108448828755494
    -1.171263394743769    -0.998023087851217    -0.023393234952235
    -0.000622672820415    -0.035753725973342     0.167256283315407
   5   2
     0.061239409609331     0.051584599947863    -0.056143738497176
     0.058515767973275     0.082864463345970     0.025822479083365
    -0.058652921193646     0.017968572709188    -0.008723896773349
   5   3
     0.061292891001564     0.059358239967326    -0.057919355732312
     0.050601094881553     0.082792044775184     0.017207343629826
    -0.056773065344052     0.026748646279295    -0.008951646515992
   5   4
    -0.975815355874366    -1.170508514374867     0.000028683575357
    -1.053007013286902    -0.997984306131723    -0.036578545896038
     0.108257144773648    -0.022429272784980     0.166561312917890
   5   5
     7.451940396672414     0.108832399603171    -0.220840969737697
     0.141982136892583     7.468310684539246     0.263721767231958
    -0.203685857423960     0.249651840013165     7.371916241743372
   5   6
    -0.053541764059543     0.013653433080320    -0.036778939934705
     0.002072896403731    -0.037583836857368    -0.012307356558168
    -0.021008243401273    -0.038194533934180    -0.022343466831903
   5   7
    -0.013956566315399     0.050932327752471    -0.033976926565988
     0.043792640710545    -0.039179975053699     0.032559323044766
    -0.014103258322332     0.013271918654427     0.034573528408789
   5   8
    -0.053578048217355    -0.037939334287721     0.051057394840394
    -0.029279932489605    -0.003708007378115    -0.001989655546027
     0.041781977745353     0.019821139106870    -0.005423892389903
   5   9
    -0.979832633617410     0.016948604309659     1.165745157559826
    -0.021829479069978     0.107912958259018    -0.007770829157303
     1.150988216280016    -0.020889447843202    -0.980501657062392
   5  10
     0.113361122501579     0.018338860874390     0.031378209141261
     0.065265889435333    -1.024826437730509    -1.187405052516209
     0.028069433268562    -1.165003786021027    -0.970329381672898
   5  11
    -0.897030150152905     0.901061740545829     0.039537832674808
     0.879467883921632    -0.877144252045235    -0.045399774189031
    -0.038489963390475     0.049878849805867     0.111061653060389
   5  12
    -0.032001252603201    -0.057898851829348    -0.038099340529195
    -0.026462295927824     0.055214850754233     0.024996907001405
     0.007295990384098    -0.025853886252085     0.023002830165272
   5  13
     0.019103367054166     0.002083041070149     0.020670432856186
     0.009012212116589     0.008587191177456    -0.037109863418409
     0.006679638447779     0.000982039990881    -0.084225465583579
   5  14
     0.045582673436263    -0.014197495890503    -0.014565399782828
    -0.011324540021000     0.042004039979152     0.041239589489621
    -0.027343099455871     0.018688486974670     0.027885382679645
   5  15
    -0.004870662286921     0.042990650614988     0.065926384575335
     0.020342298150843    -0.097654957911675    -0.058391514460383
     0.055597274163649    -0.051689256539535    -0.061010625909951
   5  16
    -1.070207060361081    -0.019533647064446    -1.184858235151618
    -0.068718331579095     0.079729555518603    -0.028012775274224
    -1.211393991100677    -0.010071966416284    -1.033639156775121
   5  17
    -0.921548767553017    -0.073351298487272    -1.082164574413102
    -0.063672672599994     0.056244364217576    -0.060275012602809
    -0.950370801239284    -0.060551449884764    -0.899059089983581
   5  18
     0.080788010497418     0.034339664684581     0.014372990444015
     0.005643892659223    -0.848616423256335     1.007227952809449
     0.009264967793470     0.910855323376820    -0.870324038157973
   5  19
    -0.003724123162674    -0.072702501054895     0.044760574388590
    -0.078559635883213    -0.101846278593022     0.070895463207448
     0.052953240885603     0.064949010501911    -0.037511281317470
   5  20
     0.089429287378756    -0.018907251038369     0.050141046419180
     0.042486903041979    -1.010636722093347     1.159239329584442
     0.015688858644523     1.174078974476798    -1.041917947611243
   5  21
    -1.055484591999369     1.223657550067740     0.045102176011395
     1.222360992872542    -1.093884293820903    -0.081467630227687
     0.045009850935385    -0.081463617686205     0.151392281899704
   5  22
    -0.028681346355573     0.007808286583844     0.000580994966300
     0.006860887616597    -0.103073088543672     0.031335084091645
     0.000457270612330     0.031473977039769    -0.034099836256138
   5  23
     0.007887175238710    -0.017061954263797     0.045369435799572
    -0.018134342540051     0.019943434965927     0.045645925640240