  30
   1   1
     7.127880595445109    -0.239900929877826    -0.219341447170672
    -0.235704607103048     7.113191154550536     0.190826159685999
    -0.231473441132397     0.210315396347159     7.077824645042065
   1   2
    -1.654053995476303    -1.858206384984582    -0.031369668273471
    -1.858469736098933    -1.640937548953773     0.018976447285219
    -0.031658412095588     0.018642250790804     0.065914630072575
   1   3
    -0.047421968788494    -0.037536558926091    -0.057310021890600
    -0.020461853196624    -0.890800551791234     0.855766912451587
    -0.115720994419249     1.041095941975730    -0.902895683518386
   1   4
    -0.816461117340481    -0.046609725475908    -0.798437436334191
    -0.060297653034165     0.024070514864936     0.006764992352736
    -1.041240325399605     0.119881105916488    -0.822973430955942
   1   5
    -0.817350357063910    -0.059444204186573    -1.041087644834877
    -0.045837572787432     0.023272561462475     0.120285855818874
    -0.796556156150949     0.004773875123450    -0.824408568795083
   1   6
    -0.048063120197212    -0.019369641229878    -0.115691531344272
    -0.037480040318607    -0.891227638314762     1.041210982019351
    -0.055695546530500     0.853659539046097    -0.904611084911489
   1   7
    -0.933206415281003     1.180661207764424     0.069256109811890
     1.165875849854908    -0.953523086935977    -0.083165062840561
    -0.020615521106879     0.011026263441816     0.081461111557007
   1   8
    -0.102448915186965    -0.026930550051071     0.021095861093088
    -0.010658136235635    -0.074286860531302    -0.005413397525665
    -0.033568340715460     0.040789561763472    -0.017604255857373
   1   9
    -0.959642400450375     0.056667181458343     1.169566529017059
    -0.038174427478602     0.048617369817106    -0.009883072758110
     1.147131841900122    -0.065355557951799    -0.935124135568792
   1  10
     0.049645448774763    -0.026413810126808     0.004568424262131
     0.060444057264179    -0.959524960111819    -1.162810456894084
     0.074860531005679    -1.156403453545990    -0.947458260240923
   1  11
    -0.053232812140158    -0.014249025250827    -0.028098125099939
    -0.006468583831437    -0.020673505708957     0.029703844659064
    -0.004372461003991     0.007420018378063    -0.077295804708773
   1  12
     0.006883331295581     0.003499713475656    -0.059118433706115
     0.000034684303352    -0.034687352138679     0.061200678661123
     0.017243890373006    -0.011754181058147    -0.091444419461846
   1  13
    -0.047905592503209     0.022310645261526     0.020734842993170
     0.022364624266319    -0.019224555347215    -0.036675700533053
     0.020762593197793    -0.036911404044906     0.004209712899102
   1  14
    -0.024245004272159     0.023659712545969     0.029523651855474
     0.023625870794094    -0.046284182791272    -0.011634294991664
     0.030170844585305    -0.012417988237874     0.010016868001757
   1  15
     0.073802510137719    -0.083503200046834    -0.067056614676461
    -0.083552479873621     0.064048750050930     0.061196627178898
    -0.066667749474673     0.060468248922556     0.101151060659528
   1  16
    -0.026890301793870     0.050595747754656     0.048777222901741
     0.050261016577720    -0.011519763147669    -0.042952150871778
     0.049260889230081    -0.043269741179002    -0.075103097231708
   1  17
    -0.006788384415111    -0.000047675989250    -0.014042912007078
     0.000316196070300    -0.017104669356305     0.013307850160238
    -0.013678223314120     0.012997274817419    -0.000416058600943
   1  18
     0.053196740526074     0.000061888500795    -0.008149489251670
    -0.000601057856349     0.055097944586206     0.014498752690399
    -0.008106750011865     0.013707172231719     0.004007605941604
   1  19
    -0.003031313155536    -0.000558680413951     0.018236670781304
    -0.001267775289749    -0.000879393073617    -0.018554711348342
     0.006963741127593    -0.008612934229117    -0.018596994276600
   1  20
     0.012524986451008     0.004847165553038    -0.013092521204882
     0.006435007490153     0.007566399393002     0.016469563345388
    -0.001581260612589     0.006020518521150     0.038647312695795
   1  21
    -0.016874830194610     0.037573834433590    -0.003876177952544
     0.012713959784432    -0.045911574769105    -0.014751302322701
    -0.006370922386339    -0.040124399892780    -0.020707385774133
   1  22
    -0.028933876878684    -0.002110474646234     0.017851245669525
     0.024122517720956     0.001703931084211     0.000090229439282
     0.039120214283828     0.009390687470196    -0.021830073717215
   1  23
     0.000095956555599    -0.004689630202183     0.004962496110707
    -0.001389169022663     0.003820848728244    -0.001280516557209
    -0.002033406012840     0.004658109707408     0.014065292053515
   1  24
     0.020116432606463    -0.011455093314973     0.002850246824849
    -0.013699360806237     0.018047081540668    -0.005256835930917
    -0.002106615508198     0.001271873245912     0.002804352230455
   1  25
     0.089532590915642     0.002386573676659     0.005779706708477
     0.020206474249604    -0.901223436248133    -1.016631922852651
     0.019268544895610    -1.003839758673971    -0.898575434027435
   1  26
    -0.901843753438701     0.015531804959021     1.009977875482150
    -0.004536448170844     0.090741126534359     0.004444763340868
     1.008182514610648    -0.021667929158956    -0.898895777342341
   1  27
    -0.050570112252139     0.005331656825536     0.019449919886202
    -0.002319676524052    -0.047739352104434    -0.013647990734177
    -0.003590798941158     0.006205729892204     0.057879648073574
   1  28
    -0.899126906718394     1.011971824915071     0.015837183632791
     1.018986317470391    -0.899693708672752    -0.018632535997819
     0.005609349246420    -0.007167395466035     0.092555970381315
   1  29
    -0.017216892442163     0.003816909538560     0.002224407316092
     0.007618856210422    -0.008607147442003    -0.005826349576139
    -0.001574415963692    -0.000839527950972    -0.013854279286355
   1  30
     0.021627073801627     0.012108498102231    -0.004020717014652
     0.007911306505195     0.013671410432168     0.012373696402684
     0.018035961860371    -0.013957147903264    -0.078744518180249
   2   1
    -1.654053995476303    -1.858206384984582    -0.031369668273471
    -1.858469736098933    -1.640937548953773     0.018976447285219
    -0.031658412095588     0.018642250790804     0.065914630072575
   2   2
     7.127880595445107    -0.239900929877826    -0.219341447170671
    -0.235704607103048     7.113191154550536     0.190826159685996
    -0.231473441132396     0.210315396347157     7.077824645042065
   2   3
    -0.816461117340481    -0.046609725475908    -0.798437436334191
    -0.060297653034165     0.024070514864936     0.006764992352736
    -1.041240325399605     0.119881105916489    -0.822973430955942
   2   4
    -0.047421968788494    -0.037536558926091    -0.057310021890600
    -0.020461853196624    -0.890800551791235     0.855766912451587
    -0.115720994419249     1.041095941975730    -0.902895683518386
   2   5
    -0.048063120197212    -0.019369641229878    -0.115691531344272
    -0.037480040318607    -0.891227638314762     1.041210982019351
    -0.055695546530500     0.853659539046097    -0.904611084911489
   2   6
    -0.817350357063910    -0.059444204186573    -1.041087644834877
    -0.045837572787431     0.023272561462475     0.120285855818874
    -0.796556156150949     0.004773875123450    -0.824408568795083
   2   7
    -0.102448915186965    -0.026930550051071     0.021095861093088
    -0.010658136235635    -0.074286860531302    -0.005413397525665
    -0.033568340715460     0.040789561763472    -0.017604255857373
   2   8
    -0.933206415281003     1.180661207764423     0.069256109811890
     1.165875849854907    -0.953523086935977    -0.083165062840561
    -0.020615521106879     0.011026263441816     0.081461111557007
   2   9
     0.049645448774763    -0.026413810126808     0.004568424262131
     0.060444057264179    -0.959524960111818    -1.162810456894084
     0.074860531005679    -1.156403453545990    -0.947458260240923
   2  10
    -0.959642400450375     0.056667181458343     1.169566529017058
    -0.038174427478602     0.048617369817106    -0.009883072758109
     1.147131841900122    -0.065355557951799    -0.935124135568792
   2  11
     0.006883331295581     0.003499713475656    -0.059118433706115
     0.000034684303352    -0.034687352138679     0.061200678661123
     0.017243890373006    -0.011754181058147    -0.091444419461846
   2  12
    -0.053232812140158    -0.014249025250827    -0.028098125099939
    -0.006468583831437    -0.020673505708957     0.029703844659064
    -0.004372461003991     0.007420018378063    -0.077295804708773
   2  13
    -0.024245004272159     0.023659712545968     0.029523651855474
     0.023625870794094    -0.046284182791272    -0.011634294991664
     0.030170844585305    -0.012417988237874     0.010016868001757
   2  14
    -0.047905592503209     0.022310645261526     0.020734842993170
     0.022364624266319    -0.019224555347215    -0.036675700533053
     0.020762593197793    -0.036911404044906     0.004209712899102
   2  15
    -0.026890301793870     0.050595747754656     0.048777222901741
     0.050261016577720    -0.011519763147669    -0.042952150871778
     0.049260889230081    -0.043269741179002    -0.075103097231708
   2  16
     0.073802510137719    -0.083503200046834    -0.067056614676461
    -0.083552479873620     0.064048750050930     0.061196627178898
    -0.066667749474673     0.060468248922556     0.101151060659528
   2  17
     0.053196740526074     0.000061888500795    -0.008149489251670
    -0.000601057856349     0.055097944586206     0.014498752690399
    -0.008106750011865     0.013707172231719     0.004007605941604
   2  18
    -0.006788384415111    -0.000047675989250    -0.014042912007078
     0.000316196070300    -0.017104669356305     0.013307850160238
    -0.013678223314120     0.012997274817419    -0.000416058600943
   2  19
     0.012524986451008     0.004847165553038    -0.013092521204882
     0.006435007490153     0.007566399393002     0.016469563345388
    -0.001581260612589     0.006020518521150     0.038647312695795
   2  20
    -0.003031313155536    -0.000558680413951     0.018236670781304
    -0.001267775289749    -0.000879393073617    -0.018554711348342
     0.006963741127593    -0.008612934229117    -0.018596994276600
   2  21
    -0.028933876878683    -0.002110474646234     0.017851245669525
     0.024122517720956     0.001703931084211     0.000090229439282
     0.039120214283828     0.009390687470196    -0.021830073717215
   2  22
    -0.016874830194610     0.037573834433590    -0.003876177952544
     0.012713959784432    -0.045911574769105    -0.014751302322701
    -0.006370922386339    -0.040124399892780    -0.020707385774133
   2  23
     0.020116432606463    -0.011455093314973     0.002850246824849
    -0.013699360806237     0.018047081540668    -0.005256835930917
    -0.002106615508198     0.001271873245912     0.002804352230455
   2  24
     0.000095956555599    -0.004689630202183     0.004962496110707
    -0.001389169022663     0.003820848728244    -0.001280516557209
    -0.002033406012840     0.004658109707408     0.014065292053515
   2  25
    -0.901843753438701     0.015531804959021     1.009977875482150
    -0.004536448170844     0.090741126534359     0.004444763340868
     1.008182514610648    -0.021667929158956    -0.898895777342341
   2  26
     0.089532590915642     0.002386573676659     0.005779706708477
     0.020206474249603    -0.901223436248132    -1.016631922852651
     0.019268544895609    -1.003839758673970    -0.898575434027435
   2  27
    -0.899126906718394     1.011971824915071     0.015837183632791
     1.018986317470390    -0.899693708672752    -0.018632535997819
     0.005609349246420    -0.007167395466035     0.092555970381315
   2  28
    -0.050570112252139     0.005331656825536     0.019449919886202
    -0.002319676524052    -0.047739352104434    -0.013647990734177
    -0.003590798941158     0.006205729892204     0.057879648073574
   2  29
     0.021627073801627     0.012108498102231    -0.004020717014652
     0.007911306505195     0.013671410432168     0.012373696402684
     0.018035961860371    -0.013957147903264    -0.078744518180249
   2  30
    -0.017216892442163     0.003816909538560     0.002224407316092
     0.007618856210422    -0.008607147442003    -0.005826349576139
    -0.001574415963692    -0.000839527950972    -0.013854279286355
   3   1
    -0.048063120197212    -0.019369641229878    -0.115691531344272
    -0.037480040318607    -0.891227638314762     1.041210982019351
    -0.055695546530500     0.853659539046097    -0.904611084911489
   3   2
    -0.817350357063910    -0.059444204186573    -1.041087644834877
    -0.045837572787431     0.023272561462475     0.120285855818874
    -0.796556156150949     0.004773875123450    -0.824408568795083
   3   3
     7.127880595445107    -0.239900929877826    -0.219341447170671
    -0.235704607103048     7.113191154550536     0.190826159685996
    -0.231473441132396     0.210315396347157     7.077824645042065
   3   4
    -1.654053995476303    -1.858206384984582    -0.031369668273471
    -1.858469736098933    -1.640937548953773     0.018976447285219
    -0.031658412095588     0.018642250790804     0.065914630072575
   3   5
    -0.047421968788494    -0.037536558926091    -0.057310021890600
    -0.020461853196624    -0.890800551791235     0.855766912451587
    -0.115720994419249     1.041095941975730    -0.902895683518386
   3   6
    -0.816461117340481    -0.046609725475908    -0.798437436334191
    -0.060297653034165     0.024070514864936     0.006764992352736
    -1.041240325399605     0.119881105916489    -0.822973430955942
   3   7
     0.006883331295581     0.003499713475656    -0.059118433706115
     0.000034684303352    -0.034687352138679     0.061200678661123
     0.017243890373006    -0.011754181058147    -0.091444419461846
   3   8
    -0.053232812140158    -0.014249025250827    -0.028098125099939
    -0.006468583831437    -0.020673505708957     0.029703844659064
    -0.004372461003991     0.007420018378063    -0.077295804708773
   3   9
    -0.933206415281003     1.180661207764423     0.069256109811890
     1.165875849854907    -0.953523086935977    -0.083165062840561
    -0.020615521106879     0.011026263441816     0.081461111557007
   3  10
    -0.102448915186965    -0.026930550051071     0.021095861093088
    -0.010658136235635    -0.074286860531302    -0.005413397525665
    -0.033568340715460     0.040789561763472    -0.017604255857373
   3  11
    -0.959642400450375     0.056667181458343     1.169566529017058
    -0.038174427478602     0.048617369817106    -0.009883072758109
     1.147131841900122    -0.065355557951799    -0.935124135568792
   3  12
     0.049645448774763    -0.026413810126808     0.004568424262131
     0.060444057264179    -0.959524960111818    -1.162810456894084
     0.074860531005679    -1.156403453545990    -0.947458260240923
   3  13
     0.053196740526074     0.000061888500795    -0.008149489251670
    -0.000601057856349     0.055097944586206     0.014498752690399
    -0.008106750011865     0.013707172231719     0.004007605941604
   3  14
    -0.006788384415111    -0.000047675989250    -0.014042912007078
     0.000316196070300    -0.017104669356305     0.013307850160238
    -0.013678223314120     0.012997274817419    -0.000416058600943
   3  15
    -0.047905592503209     0.022310645261526     0.020734842993170
     0.022364624266319    -0.019224555347215    -0.036675700533053
     0.020762593197793    -0.036911404044906     0.004209712899102
   3  16
    -0.024245004272159     0.023659712545968     0.029523651855474
     0.023625870794094    -0.046284182791272    -0.011634294991664
     0.030170844585305    -0.012417988237874     0.010016868001757
   3  17
     0.073802510137719    -0.083503200046834    -0.067056614676461
    -0.083552479873620     0.064048750050930     0.061196627178898
    -0.066667749474673     0.060468248922556     0.101151060659528
   3  18
    -0.026890301793870     0.050595747754656     0.048777222901741
     0.050261016577720    -0.011519763147669    -0.042952150871778
     0.049260889230081    -0.043269741179002    -0.075103097231708
   3  19
     0.020116432606463    -0.011455093314973     0.002850246824849
    -0.013699360806237     0.018047081540668    -0.005256835930917
    -0.002106615508198     0.001271873245912     0.002804352230455
   3  20
     0.000095956555599    -0.004689630202183     0.004962496110707
    -0.001389169022663     0.003820848728244    -0.001280516557209
    -0.002033406012840     0.004658109707408     0.014065292053515
   3  21
    -0.003031313155536    -0.000558680413951     0.018236670781304
    -0.001267775289749    -0.000879393073617    -0.018554711348342
     0.006963741127593    -0.008612934229117    -0.018596994276600
   3  22
     0.012524986451008     0.004847165553038    -0.013092521204882
     0.006435007490153     0.007566399393002     0.016469563345388
    -0.001581260612589     0.006020518521150     0.038647312695795
   3  23
    -0.016874830194610     0.037573834433590    -0.003876177952544
     0.012713959784432    -0.045911574769105    -0.014751302322701
    -0.006370922386339    -0.040124399892780    -0.020707385774133
   3  24
    -0.028933876878683    -0.002110474646234     0.017851245669525
     0.024122517720956     0.001703931084211     0.000090229439282
     0.039120214283828     0.009390687470196    -0.021830073717215
   3  25
     0.021627073801627     0.012108498102231    -0.004020717014652
     0.007911306505195     0.013671410432168     0.012373696402684
     0.018035961860371    -0.013957147903264    -0.078744518180249
   3  26
    -0.017216892442163     0.003816909538560     0.002224407316092
     0.007618856210422    -0.008607147442003    -0.005826349576139
    -0.001574415963692    -0.000839527950972    -0.013854279286355
   3  27
     0.089532590915642     0.002386573676659     0.005779706708477
     0.020206474249603    -0.901223436248132    -1.016631922852651
     0.019268544895609    -1.003839758673970    -0.898575434027435
   3  28
    -0.901843753438701     0.015531804959021     1.009977875482150
    -0.004536448170844     0.090741126534359     0.004444763340868
     1.008182514610648    -0.021667929158956    -0.898895777342341
   3  29
    -0.050570112252139     0.005331656825536     0.019449919886202
    -0.002319676524052    -0.047739352104434    -0.013647990734177
    -0.003590798941158     0.006205729892204     0.057879648073574
   3  30
    -0.899126906718394     1.011971824915071     0.015837183632791
     1.018986317470390    -0.899693708672752    -0.018632535997819
     0.005609349246420    -0.007167395466035     0.092555970381315
   4   1
    -0.817350357063910    -0.059444204186573    -1.041087644834877
    -0.045837572787431     0.023272561462475     0.120285855818874
    -0.796556156150949     0.004773875123450    -0.824408568795083
   4   2
    -0.048063120197212    -0.019369641229878    -0.115691531344272
    -0.037480040318607    -0.891227638314762     1.041210982019351
    -0.055695546530500     0.853659539046097    -0.904611084911489
   4   3
    -1.654053995476303    -1.858206384984582    -0.031369668273471
    -1.858469736098933    -1.640937548953773     0.018976447285219
    -0.031658412095588     0.018642250790804     0.065914630072575
   4   4
     7.127880595445107    -0.239900929877826    -0.219341447170671
    -0.235704607103048     7.113191154550536     0.190826159685996
    -0.231473441132396     0.210315396347157     7.077824645042065
   4   5
    -0.816461117340481    -0.046609725475908    -0.798437436334191
    -0.060297653034165     0.024070514864936     0.006764992352736
    -1.041240325399605     0.119881105916489    -0.822973430955942
   4   6
    -0.047421968788494    -0.037536558926091    -0.057310021890600
    -0.020461853196624    -0.890800551791235     0.855766912451587
    -0.115720994419249     1.041095941975730    -0.902895683518386
   4   7
    -0.053232812140158    -0.014249025250827    -0.028098125099939
    -0.006468583831437    -0.020673505708957     0.029703844659064
    -0.004372461003991     0.007420018378063    -0.077295804708773
   4   8
     0.006883331295581     0.003499713475656    -0.059118433706115
     0.000034684303352    -0.034687352138679     0.061200678661123
     0.017243890373006    -0.011754181058147    -0.091444419461846
   4   9
    -0.102448915186965    -0.026930550051071     0.021095861093088
    -0.010658136235635    -0.074286860531302    -0.005413397525665
    -0.033568340715460     0.040789561763472    -0.017604255857373
   4  10
    -0.933206415281003     1.180661207764423     0.069256109811890
     1.165875849854907    -0.953523086935977    -0.083165062840561
    -0.020615521106879     0.011026263441816     0.081461111557007
   4  11
     0.049645448774763    -0.026413810126808     0.004568424262131
     0.060444057264179    -0.959524960111818    -1.162810456894084
     0.074860531005679    -1.156403453545990    -0.947458260240923
   4  12
    -0.959642400450375     0.056667181458343     1.169566529017058
    -0.038174427478602     0.048617369817106    -0.009883072758109
     1.147131841900122    -0.065355557951799    -0.935124135568792
   4  13
    -0.006788384415111    -0.000047675989250    -0.014042912007078
     0.000316196070300    -0.017104669356305     0.013307850160238
    -0.013678223314120     0.012997274817419    -0.000416058600943
   4  14
     0.053196740526074     0.000061888500795    -0.008149489251670
    -0.000601057856349     0.055097944586206     0.014498752690399
    -0.008106750011865     0.013707172231719     0.004007605941604
   4  15
    -0.024245004272159     0.023659712545968     0.029523651855474
     0.023625870794094    -0.046284182791272    -0.011634294991664
     0.030170844585305    -0.012417988237874     0.010016868001757
   4  16
    -0.047905592503209     0.022310645261526     0.020734842993170
     0.022364624266319    -0.019224555347215    -0.036675700533053
     0.020762593197793    -0.036911404044906     0.004209712899102
   4  17
    -0.026890301793870     0.050595747754656     0.048777222901741
     0.050261016577720    -0.011519763147669    -0.042952150871778
     0.049260889230081    -0.043269741179002    -0.075103097231708
   4  18
     0.073802510137719    -0.083503200046834    -0.067056614676461
    -0.083552479873620     0.064048750050930     0.061196627178898
    -0.066667749474673     0.060468248922556     0.101151060659528
   4  19
     0.000095956555599    -0.004689630202183     0.004962496110707
    -0.001389169022663     0.003820848728244    -0.001280516557209
    -0.002033406012840     0.004658109707408     0.014065292053515
   4  20
     0.020116432606463    -0.011455093314973     0.002850246824849
    -0.013699360806237     0.018047081540668    -0.005256835930917
    -0.002106615508198     0.001271873245912     0.002804352230455
   4  21
     0.012524986451008     0.004847165553038    -0.013092521204882
     0.006435007490153     0.007566399393002     0.016469563345388
    -0.001581260612589     0.006020518521150     0.038647312695795
   4  22
    -0.003031313155536    -0.000558680413951     0.018236670781304
    -0.001267775289749    -0.000879393073617    -0.018554711348342
     0.006963741127593    -0.008612934229117    -0.018596994276600
   4  23
    -0.028933876878683    -0.002110474646234     0.017851245669525
     0.024122517720956     0.001703931084211     0.000090229439282
     0.039120214283828     0.009390687470196    -0.021830073717215
   4  24
    -0.016874830194610     0.037573834433590    -0.003876177952544
     0.012713959784432    -0.045911574769105    -0.014751302322701
    -0.006370922386339    -0.040124399892780    -0.020707385774133
   4  25
    -0.017216892442163     0.003816909538560     0.002224407316092
     0.007618856210422    -0.008607147442003    -0.005826349576139
    -0.001574415963692    -0.000839527950972    -0.013854279286355
   4  26
     0.021627073801627     0.012108498102231    -0.004020717014652
     0.007911306505195     0.013671410432168     0.012373696402684
     0.018035961860371    -0.013957147903264    -0.078744518180249
   4  27
    -0.901843753438701     0.015531804959021     1.009977875482150
    -0.004536448170844     0.090741126534359     0.004444763340868
     1.008182514610648    -0.021667929158956    -0.898895777342341
   4  28
     0.089532590915642     0.002386573676659     0.005779706708477
     0.020206474249603    -0.901223436248132    -1.016631922852651
     0.019268544895609    -1.003839758673970    -0.898575434027435
   4  29
    -0.899126906718394     1.011971824915071     0.015837183632791
     1.018986317470390    -0.899693708672752    -0.018632535997819
     0.005609349246420    -0.007167395466035     0.092555970381315
   4  30
    -0.050570112252139     0.005331656825536     0.019449919886202
    -0.002319676524052    -0.047739352104434    -0.013647990734177
    -0.003590798941158     0.006205729892204     0.057879648073574
   5   1
    -0.816461117340481    -0.046609725475908    -0.798437436334191
    -0.060297653034165     0.024070514864936     0.006764992352736
    -1.041240325399605     0.119881105916489    -0.822973430955942
   5   2
    -0.047421968788494    -0.037536558926091    -0.057310021890600
    -0.020461853196624    -0.890800551791235     0.855766912451587
    -0.115720994419249     1.041095941975730    -0.902895683518386
   5   3
    -0.048063120197212    -0.019369641229878    -0.115691531344272
    -0.037480040318607    -0.891227638314762     1.041210982019351
    -0.055695546530500     0.853659539046097    -0.904611084911489
   5   4
    -0.817350357063910    -0.059444204186573    -1.041087644834877
    -0.045837572787431     0.023272561462475     0.120285855818874
    -0.796556156150949     0.004773875123450    -0.824408568795083
   5   5
     7.127880595445107    -0.239900929877826    -0.219341447170671
    -0.235704607103048     7.113191154550536     0.190826159685996
    -0.231473441132396     0.210315396347157     7.077824645042065
   5   6
    -1.654053995476303    -1.858206384984582    -0.031369668273471
    -1.858469736098933    -1.640937548953773     0.018976447285219
    -0.031658412095588     0.018642250790804     0.065914630072575
   5   7
     0.049645448774763    -0.026413810126808     0.004568424262131
     0.060444057264179    -0.959524960111818    -1.162810456894084
     0.074860531005679    -1.156403453545990    -0.947458260240923
   5   8
    -0.959642400450375     0.056667181458343     1.169566529017058
    -0.038174427478602     0.048617369817106    -0.009883072758109
     1.147131841900122    -0.065355557951799    -0.935124135568792
   5   9
     0.006883331295581     0.003499713475656    -0.059118433706115
     0.000034684303352    -0.034687352138679     0.061200678661123
     0.017243890373006    -0.011754181058147    -0.091444419461846
   5  10
    -0.053232812140158    -0.014249025250827    -0.028098125099939
    -0.006468583831437    -0.020673505708957     0.029703844659064
    -0.004372461003991     0.007420018378063    -0.077295804708773
   5  11
    -0.933206415281003     1.180661207764423     0.069256109811890
     1.165875849854907    -0.953523086935977    -0.083165062840561
    -0.020615521106879     0.011026263441816     0.081461111557007
   5  12
    -0.102448915186965    -0.026930550051071     0.021095861093088
    -0.010658136235635    -0.074286860531302    -0.005413397525665
    -0.033568340715460     0.040789561763472    -0.017604255857373
   5  13
    -0.026890301793870     0.050595747754656     0.048777222901741
     0.050261016577720    -0.011519763147669    -0.042952150871778
     0.049260889230081    -0.043269741179002    -0.075103097231708
   5  14
     0.073802510137719    -0.083503200046834    -0.067056614676461
    -0.083552479873620     0.064048750050930     0.061196627178898
    -0.066667749474673     0.060468248922556     0.101151060659528
   5  15
     0.053196740526074     0.000061888500795    -0.008149489251670
    -0.000601057856349     0.055097944586206     0.014498752690399
    -0.008106750011865     0.013707172231719     0.004007605941604
   5  16
    -0.006788384415111    -0.000047675989250    -0.014042912007078
     0.000316196070300    -0.017104669356305     0.013307850160238
    -0.013678223314120     0.012997274817419    -0.000416058600943
   5  17
    -0.047905592503209     0.022310645261526     0.020734842993170
     0.022364624266319    -0.019224555347215    -0.036675700533053
     0.020762593197793    -0.036911404044906     0.004209712899102
   5  18
    -0.024245004272159     0.023659712545968     0.029523651855474
     0.023625870794094    -0.046284182791272    -0.011634294991664
     0.030170844585305    -0.012417988237874     0.010016868001757
   5  19
    -0.028933876878683    -0.002110474646234     0.017851245669525
     0.024122517720956     0.001703931084211     0.000090229439282
     0.039120214283828     0.009390687470196    -0.021830073717215
   5  20
    -0.016874830194610     0.037573834433590    -0.003876177952544
     0.012713959784432    -0.045911574769105    -0.014751302322701
    -0.006370922386339    -0.040124399892780    -0.020707385774133
   5  21
     0.020116432606463    -0.011455093314973     0.002850246824849
    -0.013699360806237     0.018047081540668    -0.005256835930917
    -0.002106615508198     0.001271873245912     0.002804352230455
   5  22
     0.000095956555599    -0.004689630202183     0.004962496110707
    -0.001389169022663     0.003820848728244    -0.001280516557209
    -0.002033406012840     0.004658109707408     0.014065292053515
   5  23
    -0.003031313155536    -0.000558680413951     0.018236670781304
    -0.001267775289749    -0.000879393073617    -0.018554711348342