30
Lattice="-4.000239604678857 -3.9995358101183607 -0.0004258763831092 2.0010968829089837 -3.999871184995133 5.999173199554255 -6.056659426583935 6.056455470706025 8.05448970351682" Properties=Z:I:1:pos:R:3:vasp_force:R:3 uuid=05ba641c-ade4-4af1-9465-8932bdc4e4d5 vasp_virial="-0.0432117871492394 0.10376387479041352 -0.02334294458208703 0.10376387479041352 -0.02170860615593081 -0.08778904743826181 -0.02334294458208703 -0.08778904743826181 0.09224193993392588" vasp_energy=-127.0092321 pbc="T T T"
      46      -2.04067238      -3.97260907       2.03399276       0.04708500       0.04972900      -0.00065200 
      46      -0.03348088      -1.96577071       2.03420645      -0.02597200      -0.02330700       0.00009400 
      46      -2.03327499      -5.96541832       4.03364693      -0.00201300      -0.00488200       0.00567000 
      46      -0.03315519      -3.96565041       4.03385987      -0.00770100       0.00156600      -0.00558300 
      46       1.96729031      -3.96576220       6.03372623      -0.00883000       0.00142300      -0.00611200 
      46      -0.03282950      -5.96553011       6.03351329      -0.00328600      -0.00471100       0.00694000 
      46      -4.01140384      -1.98838166       2.01058502       0.00153300       0.00211900      -0.00054000 
      46      -2.01128404       0.01138624       2.01079796      -0.00092200      -0.00019100      -0.00032700 
      46      -4.01107815      -3.98826136       4.01023844      -0.00739000       0.00098700       0.00776900 
      46      -2.01095835      -1.98849345       4.01045138       0.00046600      -0.00670600      -0.00862700 
      46      -0.01051285      -1.98860525       6.01031774      -0.00061100      -0.00042000      -0.00017600 
      46      -2.01063265      -3.98837315       6.01010480      -0.00014500      -0.00038900      -0.00018300 
      46      -5.98911669      -2.01087555       3.98636194       0.00187300      -0.00218000       0.00089200 
      46      -3.98899689      -0.01110764       3.98657488       0.00204900      -0.00236200       0.00113200 
      46      -1.98855139      -0.01121943       5.98644124       0.00145800      -0.00206200       0.00056900 
      46      -3.98867120      -2.01098734       5.98622830       0.00169000      -0.00164200       0.00065300 
      46      -1.98822570      -2.01109913       7.98609466       0.00308000      -0.00210200       0.00032600 
      46      -3.98834550      -4.01086703       7.98588172       0.00350000      -0.00159400       0.00037500 
      47      -6.00178961       0.00199480       6.00063622      -0.00031600       0.00063900      -0.00036600 
      47      -4.00166981       2.00176271       6.00084916      -0.00015100       0.00073600      -0.00034200 
      47      -6.00146392      -1.99788490       8.00028964      -0.00104200       0.00039500      -0.00083800 
      47      -4.00134411       0.00188301       8.00050258      -0.00104700       0.00045200      -0.00058000 
      47      -2.00089862       0.00177122      10.00036894      -0.00113500       0.00080400      -0.00011900 
      47      -4.00101842      -1.99799669      10.00015600      -0.00108000       0.00085600      -0.00016200 
      47      -8.07726956       0.07769754       8.07487240       0.00163400      -0.00647200      -0.00702100 
      47      -6.07714975       2.07746545       8.07508534      -0.00552300       0.00066400       0.00730000 
      47      -4.07670426       2.07735366      10.07495170      -0.00023500      -0.00072000       0.00012200 
      47      -6.07682406       0.07758575      10.07473876       0.00096500       0.00039600       0.00006100 
      47      -4.07637857       0.07747396      12.07460512       0.00089400      -0.00062100      -0.00018200 
      47      -6.07649837      -1.92229395      12.07439218       0.00117200      -0.00040500      -0.00009200 
30
Lattice="-4.000239604678857 -3.9995358101183607 -0.0004258763831092 2.0010968829089837 -3.999871184995133 5.999173199554255 -6.056659426583935 6.056455470706025 8.05448970351682" Properties=Z:I:1:pos:R:3:vasp_force:R:3 uuid=ba247cd7-7fe7-4e06-89d9-e3913bd166f8 vasp_virial="-0.034795397398275967 0.10219599744628212 -0.01809554006039877 0.10219599744628212 -0.017433950198424256 -0.08414879271826507 -0.01809554006039877 -0.08414879271826507 0.09817208102550563" vasp_energy=-127.00925346 pbc="T T T"
      46      -2.03360069      -3.96553862       2.03399351      -0.00927400       0.00889500       0.00062000 
      46      -0.03348088      -1.96577071       2.03420645      -0.00107900       0.00176700      -0.00032200 
      46      -2.03327499      -5.96541832       4.03364693      -0.00200700       0.00241900      -0.00074500 
      46      -0.03315519      -3.96565041       4.03385987      -0.00181000       0.00205300      -0.00080900 
      46       1.96729031      -3.96576220       6.03372623      -0.00232100      -0.00238200      -0.00077500 
      46      -0.03282950      -5.96553011       6.03351329       0.00390900       0.00121700      -0.00366400 
      46      -4.01407808      -1.98303630       2.00256782       0.01677000      -0.03545700       0.05189100 
      46      -2.01128404       0.01138624       2.01079796       0.00566900       0.00377900       0.00070800 
      46      -4.01107815      -3.98826136       4.01023844      -0.00063400       0.01199400      -0.01238400 
      46      -2.01095835      -1.98849345       4.01045138      -0.00919700      -0.00027500      -0.00840200 
      46      -0.01051285      -1.98860525       6.01031774      -0.00950100      -0.00069300      -0.00841500 
      46      -2.01063265      -3.98837315       6.01010480      -0.00050200       0.01215400      -0.01253500 
      46      -5.98911669      -2.01087555       3.98636194       0.00849400      -0.00260500      -0.00309700 
      46      -3.98899689      -0.01110764       3.98657488       0.00233300      -0.00617600      -0.00024700 
      46      -1.98855139      -0.01121943       5.98644124       0.00120400      -0.00154200      -0.00007400 
      46      -3.98867120      -2.01098734       5.98622830       0.00103500      -0.00121400      -0.00004700 
      46      -1.98822570      -2.01109913       7.98609466       0.00314000      -0.00161900      -0.00015200 
      46      -3.98834550      -4.01086703       7.98588172      -0.00523700       0.00568300       0.00087100 
      47      -6.00178961       0.00199480       6.00063622      -0.00017700       0.00056300      -0.00041700 
      47      -4.00166981       2.00176271       6.00084916      -0.00004300       0.00045500      -0.00045600 
      47      -6.00146392      -1.99788490       8.00028964      -0.00123000       0.00063900      -0.00076100 
      47      -4.00134411       0.00188301       8.00050258      -0.00105500       0.00056800      -0.00070300 
      47      -2.00089862       0.00177122      10.00036894      -0.00110000       0.00081000      -0.00015700 
      47      -4.00101842      -1.99799669      10.00015600      -0.00119200       0.00088500      -0.00013600 
      47      -8.07726956       0.07769754       8.07487240       0.00074300       0.00003600       0.00024100 
      47      -6.07714975       2.07746545       8.07508534       0.00083900      -0.00004100       0.00022200 
      47      -4.07670426       2.07735366      10.07495170       0.00007500      -0.00028500       0.00010500 
      47      -6.07682406       0.07758575      10.07473876      -0.00009800      -0.00020900       0.00005000 
      47      -4.07637857       0.07747396      12.07460512       0.00119200      -0.00075800      -0.00022100 
      47      -6.07649837      -1.92229395      12.07439218       0.00105400      -0.00066000      -0.00018800 
30
Lattice="-4.000239604678857 -3.9995358101183607 -0.0004258763831092 2.0010968829089837 -3.999871184995133 5.999173199554255 -6.056659426583935 6.056455470706025 8.05448970351682" Properties=Z:I:1:pos:R:3:vasp_force:R:3 uuid=ebee7dda-010b-49fc-8419-f3f253c8e9fb vasp_virial="-0.04155932297344004 0.10223526990384227 -0.01924652516273799 0.10223526990384227 -0.024110267983646506 -0.08292530461735328 -0.01924652516273799 -0.08292530461735328 0.09208485010368535" vasp_energy=-127.00915374 pbc="T T T"
      46      -2.03360069      -3.96553862       2.03399351      -0.01236600       0.01271900      -0.00052400 
      46      -0.03348088      -1.96577071       2.03420645      -0.00172100       0.00178600      -0.00011200 
      46      -2.03327499      -5.96541832       4.03364693      -0.00119400       0.00149600       0.00069200 
      46      -0.03315519      -3.96565041       4.03385987      -0.00162900       0.00160000       0.00037600 
      46       1.96729031      -3.96576220       6.03372623      -0.00239800       0.01462300       0.01307600 
      46      -0.03282950      -5.96553011       6.03351329      -0.01571400       0.00130700       0.01289100 
      46      -4.01655516      -1.98323052       2.01743554       0.04559100      -0.04374100      -0.05563500 
      46      -2.01128404       0.01138624       2.01079796       0.00092000      -0.00047400      -0.00084900 
      46      -4.01107815      -3.98826136       4.01023844      -0.00050200      -0.00170400       0.00060400 
      46      -2.01095835      -1.98849345       4.01045138       0.00201200      -0.00014700      -0.00025300 
      46      -0.01051285      -1.98860525       6.01031774       0.00210000      -0.00053400       0.00012500 
      46      -2.01063265      -3.98837315       6.01010480      -0.00041700      -0.00207300       0.00094900 
      46      -5.98911669      -2.01087555       3.98636194      -0.01152200      -0.00262900       0.01388100 
      46      -3.98899689      -0.01110764       3.98657488       0.00239700       0.01127300       0.01406100 
      46      -1.98855139      -0.01121943       5.98644124       0.00146200      -0.00206500       0.00107200 
      46      -3.98867120      -2.01098734       5.98622830       0.00188700      -0.00217200       0.00137100 
      46      -1.98822570      -2.01109913       7.98609466       0.00253100      -0.00162800       0.00005600 
      46      -3.98834550      -4.01086703       7.98588172      -0.00847100       0.00967300      -0.00044500 
      47      -6.00178961       0.00199480       6.00063622      -0.00037400       0.00065600      -0.00020100 
      47      -4.00166981       2.00176271       6.00084916      -0.00049800       0.00077300       0.00001100 
      47      -6.00146392      -1.99788490       8.00028964      -0.00123700       0.00055900      -0.00086100 
      47      -4.00134411       0.00188301       8.00050258      -0.00101900       0.00040300      -0.00080400 
      47      -2.00089862       0.00177122      10.00036894      -0.00147500       0.00085600      -0.00007200 
      47      -4.00101842      -1.99799669      10.00015600      -0.00124800       0.00108900      -0.00008700 
      47      -8.07726956       0.07769754       8.07487240       0.00071200       0.00020700       0.00027100 
      47      -6.07714975       2.07746545       8.07508534       0.00049200      -0.00001700       0.00028900 
      47      -4.07670426       2.07735366      10.07495170       0.00013100      -0.00046600      -0.00001500 
      47      -6.07682406       0.07758575      10.07473876      -0.00008500      -0.00031500      -0.00007300 
      47      -4.07637857       0.07747396      12.07460512       0.00075600      -0.00047000       0.00021100 
      47      -6.07649837      -1.92229395      12.07439218       0.00087900      -0.00058400      -0.00000300 
30
Lattice="-4.000239604678857 -3.9995358101183607 -0.0004258763831092 2.0010968829089837 -3.999871184995133 5.999173199554255 -6.056659426583935 6.056455470706025 8.05448970351682" Properties=Z:I:1:pos:R:3:vasp_force:R:3 uuid=6bf589e6-c58d-4f63-a6f8-01f3c6b8546c vasp_virial="-0.04166203555475116 0.1017488956217514 -0.01902297425047263 0.1017488956217514 -0.024379133270019705 -0.08301593336556898 -0.01902297425047263 -0.08301593336556898 0.09175556565183501" vasp_energy=-127.00915875 pbc="T T T"
      46      -2.03360069      -3.96553862       2.03399351       0.01040600      -0.01024800       0.00087900 
      46      -0.03348088      -1.96577071       2.03420645      -0.00061200       0.00107000       0.00037600 
      46      -2.03327499      -5.96541832       4.03364693      -0.00199100       0.00198100      -0.00089100 
      46      -0.03315519      -3.96565041       4.03385987      -0.00156400       0.00187300      -0.00059200 
      46       1.96729031      -3.96576220       6.03372623      -0.00307700      -0.01181500      -0.01263100 
      46      -0.03282950      -5.96553011       6.03351329       0.01082900       0.00207200      -0.01244900 
      46      -4.00625252      -1.99353281       2.00373450      -0.04479800       0.04457400       0.05554400 
      46      -2.01128404       0.01138624       2.01079796      -0.00124400       0.00151400      -0.00010600 
      46      -4.01107815      -3.98826136       4.01023844      -0.00012000       0.00209500      -0.00173700 
      46      -2.01095835      -1.98849345       4.01045138      -0.00263800       0.00055600      -0.00091300 
      46      -0.01051285      -1.98860525       6.01031774      -0.00254900       0.00017000      -0.00053600 
      46      -2.01063265      -3.98837315       6.01010480      -0.00003600       0.00172600      -0.00139400 
      46      -5.98911669      -2.01087555       3.98636194       0.01504900      -0.00186300      -0.01147800 
      46      -3.98899689      -0.01110764       3.98657488       0.00172200      -0.01519100      -0.01166200 
      46      -1.98855139      -0.01121943       5.98644124       0.00152800      -0.00179500       0.00010100 
      46      -3.98867120      -2.01098734       5.98622830       0.00109300      -0.00168900      -0.00021300 
      46      -1.98822570      -2.01109913       7.98609466       0.00364000      -0.00234400       0.00054400 
      46      -3.98834550      -4.01086703       7.98588172       0.01426800      -0.01326000       0.00095600 
      47      -6.00178961       0.00199480       6.00063622      -0.00027600       0.00063400      -0.00058400 
      47      -4.00166981       2.00176271       6.00084916      -0.00015300       0.00052000      -0.00079700 
      47      -6.00146392      -1.99788490       8.00028964      -0.00086700       0.00034300      -0.00062300 
      47      -4.00134411       0.00188301       8.00050258      -0.00108200       0.00049400      -0.00068100 
      47      -2.00089862       0.00177122      10.00036894      -0.00086100       0.00075500      -0.00028900 
      47      -4.00101842      -1.99799669      10.00015600      -0.00108100       0.00053200      -0.00027200 
      47      -8.07726956       0.07769754       8.07487240       0.00087900      -0.00035000       0.00008600 
      47      -6.07714975       2.07746545       8.07508534       0.00110600      -0.00011800       0.00007100 
      47      -4.07670426       2.07735366      10.07495170       0.00006700      -0.00037500       0.00010800 
      47      -6.07682406       0.07758575      10.07473876       0.00028500      -0.00053100       0.00016500 
      47      -4.07637857       0.07747396      12.07460512       0.00110100      -0.00072300      -0.00059700 
      47      -6.07649837      -1.92229395      12.07439218       0.00097700      -0.00060600      -0.00038600 
30
Lattice="-4.000239604678857 -3.9995358101183607 -0.0004258763831092 2.0010968829089837 -3.999871184995133 5.999173199554255 -6.056659426583935 6.056455470706025 8.05448970351682" Properties=Z:I:1:pos:R:3:vasp_force:R:3 uuid=830b86e7-8d27-451f-a9b6-3a640970c21e vasp_virial="-0.0396440354278152 0.10334698254862136 -0.015207503950592222 0.10334698254862136 -0.02478092072044259 -0.08008862479820231 -0.015207503950592222 -0.08008862479820231 0.09236882018142784" vasp_energy=-127.0092323 pbc="T T T"
      46      -2.03360069      -3.96553862       2.03399351      -0.00132800       0.00143000       0.00003000 
      46      -0.03348088      -1.96577071       2.03420645      -0.00114700       0.00124200       0.00026300 
      46      -2.03327499      -5.96541832       4.03364693      -0.00119800       0.00210600      -0.00005100 
      46      -0.03315519      -3.96565041       4.03385987      -0.00162000       0.00159400      -0.00009700 
      46       1.96729031      -3.96576220       6.03372623      -0.00250900       0.00191000       0.00051300 
      46      -0.03282950      -5.96553011       6.03351329      -0.00274800       0.00149900       0.00043200 
      46      -4.01140384      -1.98838166       2.01058502      -0.00714700       0.00122000       0.00764200 
      46      -2.01128404       0.01138624       2.01079796       0.00066900      -0.00653800      -0.00874600 
      46      -4.01107815      -3.98826136       4.01023844       0.00133500       0.00180800      -0.00064700 
      46      -2.01095835      -1.98849345       4.01045138      -0.00109900      -0.00053100      -0.00044000 
      46      -0.01051285      -1.98860525       6.01031774      -0.00015300      -0.00042600      -0.00019400 
      46      -2.01063265      -3.98837315       6.01010480      -0.00062700      -0.00044200      -0.00021100 
      46      -5.99618838      -2.01794599       3.98636119       0.05077500       0.04678600       0.00084300 
      46      -3.98899689      -0.01110764       3.98657488      -0.02279700      -0.02697200       0.00088000 
      46      -1.98855139      -0.01121943       5.98644124       0.00092000      -0.00844600       0.00723600 
      46      -3.98867120      -2.01098734       5.98622830      -0.00453800      -0.00221000      -0.00581800 
      46      -1.98822570      -2.01109913       7.98609466      -0.00315600      -0.00214000      -0.00536900 
      46      -3.98834550      -4.01086703       7.98588172       0.00259900      -0.00850200       0.00586400 
      47      -6.00178961       0.00199480       6.00063622       0.00044300      -0.00566500      -0.00744200 
      47      -4.00166981       2.00176271       6.00084916      -0.00676000       0.00140200       0.00686400 
      47      -6.00146392      -1.99788490       8.00028964      -0.00082100       0.00061200      -0.00067300 
      47      -4.00134411       0.00188301       8.00050258      -0.00109700       0.00039500      -0.00075300 
      47      -2.00089862       0.00177122      10.00036894      -0.00027800       0.00156600      -0.00018900 
      47      -4.00101842      -1.99799669      10.00015600      -0.00152100       0.00049100      -0.00012800 
      47      -8.07726956       0.07769754       8.07487240       0.00077800      -0.00009000       0.00019000 
      47      -6.07714975       2.07746545       8.07508534       0.00094200       0.00000900       0.00021900 
      47      -4.07670426       2.07735366      10.07495170       0.00016000      -0.00038900       0.00004400 
      47      -6.07682406       0.07758575      10.07473876       0.00010400      -0.00044200       0.00008700 
      47      -4.07637857       0.07747396      12.07460512       0.00090800      -0.00061200      -0.00004500 
      47      -6.07649837      -1.92229395      12.07439218       0.00091100      -0.00066500      -0.00030400 
30
Lattice="-4.000239604678857 -3.9995358101183607 -0.0004258763831092 2.0010968829089837 -3.999871184995133 5.999173199554255 -6.056659426583935 6.056455470706025 8.05448970351682" Properties=Z:I:1:pos:R:3:vasp_force:R:3 uuid=6b8f53ea-56c2-4704-9960-10e769455c62 vasp_virial="-0.042834167365007364 0.10377595862350893 -0.023013660130236695 0.10377595862350893 -0.021110456417707278 -0.08759872706700886 -0.023013660130236695 -0.08759872706700886 0.09282196392250626" vasp_energy=-127.00923215 pbc="T T T"
      46      -2.03360069      -3.96553862       2.03399351      -0.00098700       0.00139900       0.00026700 
      46      -0.03348088      -1.96577071       2.03420645      -0.00116300       0.00158100       0.00002600 
      46      -2.03327499      -5.96541832       4.03364693      -0.00196800       0.00134400      -0.00012200 
      46      -0.03315519      -3.96565041       4.03385987      -0.00154800       0.00185100      -0.00007500 
      46       1.96729031      -3.96576220       6.03372623      -0.00286400       0.00137300       0.00044800 
      46      -0.03282950      -5.96553011       6.03351329      -0.00263200       0.00179100       0.00053200 
      46      -4.01140384      -1.98838166       2.01058502       0.00695600      -0.00026700      -0.00875200 
      46      -2.01128404       0.01138624       2.01079796      -0.00090800       0.00744000       0.00765000 
      46      -4.01107815      -3.98826136       4.01023844      -0.00197100      -0.00139400      -0.00043800 
      46      -2.01095835      -1.98849345       4.01045138       0.00048300       0.00091600      -0.00065200 
      46      -0.01051285      -1.98860525       6.01031774      -0.00026700       0.00003200      -0.00021200 
      46      -2.01063265      -3.98837315       6.01010480       0.00019800       0.00005900      -0.00021700 
      46      -5.98204500      -2.00380510       3.98636270      -0.04613100      -0.05077000       0.00088100 
      46      -3.98899689      -0.01110764       3.98657488       0.02685800       0.02252700       0.00106600 
      46      -1.98855139      -0.01121943       5.98644124       0.00211000       0.00444200      -0.00583600 
      46      -3.98867120      -2.01098734       5.98622830       0.00765400      -0.00169100       0.00721500 
      46      -1.98822570      -2.01109913       7.98609466       0.00923100      -0.00181600       0.00583300 
      46      -3.98834550      -4.01086703       7.98588172       0.00354500       0.00463300      -0.00542000 
      47      -6.00178961       0.00199480       6.00063622      -0.00112700       0.00704200       0.00685300 
      47      -4.00166981       2.00176271       6.00084916       0.00602000      -0.00008300      -0.00745400 
      47      -6.00146392      -1.99788490       8.00028964      -0.00126100       0.00026200      -0.00077800 
      47      -4.00134411       0.00188301       8.00050258      -0.00098200       0.00047700      -0.00068700 
      47      -2.00089862       0.00177122      10.00036894      -0.00199700      -0.00001400      -0.00013500 
      47      -4.00101842      -1.99799669      10.00015600      -0.00079500       0.00110400      -0.00019500 
      47      -8.07726956       0.07769754       8.07487240       0.00082200      -0.00005900       0.00020600 
      47      -6.07714975       2.07746545       8.07508534       0.00065600      -0.00015600       0.00018200 
      47      -4.07670426       2.07735366      10.07495170       0.00005100      -0.00047100       0.00008900 
      47      -6.07682406       0.07758575      10.07473876       0.00010500      -0.00041900       0.00004600 
      47      -4.07637857       0.07747396      12.07460512       0.00095800      -0.00059500      -0.00028800 
      47      -6.07649837      -1.92229395      12.07439218       0.00095300      -0.00053800      -0.00003000 
30
Lattice="-4.000239604678857 -3.9995358101183607 -0.0004258763831092 2.0010968829089837 -3.999871184995133 5.999173199554255 -6.056659426583935 6.056455470706025 8.05448970351682" Properties=Z:I:1:pos:R:3:vasp_force:R:3 uuid=753b3e51-0c0c-4cf2-9c5b-094edfb522ba vasp_virial="-0.04199736192314919 0.09797873969597885 -0.016113791432749085 0.09797873969597885 -0.02476883688734716 -0.08610033176317618 -0.016113791432749085 -0.08610033176317618 0.09369804182192457" vasp_energy=-127.00924938 pbc="T T T"
      46      -2.03360069      -3.96553862       2.03399351      -0.00107000       0.00153600      -0.00011300 
      46      -0.03348088      -1.96577071       2.03420645      -0.00119700       0.00119300      -0.00005000 
      46      -2.03327499      -5.96541832       4.03364693      -0.00165900       0.00189800       0.00000700 
      46      -0.03315519      -3.96565041       4.03385987      -0.00143600       0.00150900       0.00004500 
      46       1.96729031      -3.96576220       6.03372623      -0.00272600       0.00177300       0.00073000 
      46      -0.03282950      -5.96553011       6.03351329      -0.00278600       0.00171100       0.00018900 
      46      -4.01140384      -1.98838166       2.01058502      -0.00692200       0.00110800       0.00384900 
      46      -2.01128404       0.01138624       2.01079796      -0.00054100       0.00469800       0.00093300 
      46      -4.01107815      -3.98826136       4.01023844       0.00869900      -0.00825100      -0.00184700 
      46      -2.01095835      -1.98849345       4.01045138       0.00019100      -0.00047600      -0.00046600 
      46      -0.01051285      -1.98860525       6.01031774      -0.00036100      -0.00030900       0.00102600 
      46      -2.01063265      -3.98837315       6.01010480      -0.00006200      -0.00033400       0.00065400 
      46      -5.98644246      -2.01622091       3.99437915      -0.01645100       0.03539200      -0.05474200 
      46      -3.98899689      -0.01110764       3.98657488      -0.00322100      -0.00618700       0.00066100 
      46      -1.98855139      -0.01121943       5.98644124       0.00186200      -0.01378600       0.01400500 
      46      -3.98867120      -2.01098734       5.98622830       0.01002900      -0.00170000       0.01081600 
      46      -1.98822570      -2.01109913       7.98609466       0.01311600      -0.00273600       0.00891800 
      46      -3.98834550      -4.01086703       7.98588172       0.00406900      -0.01473100       0.01203400 
      47      -6.00178961       0.00199480       6.00063622      -0.00059700       0.00385000       0.00138000 
      47      -4.00166981       2.00176271       6.00084916      -0.00604700       0.00125200       0.00418100 
      47      -6.00146392      -1.99788490       8.00028964      -0.00119400       0.00058100       0.00000500 
      47      -4.00134411       0.00188301       8.00050258      -0.00093600       0.00037700      -0.00063400 
      47      -2.00089862       0.00177122      10.00036894       0.00657500      -0.00660300      -0.00100000 
      47      -4.00101842      -1.99799669      10.00015600      -0.00099300       0.00046100      -0.00073000 
      47      -8.07726956       0.07769754       8.07487240       0.00075700      -0.00002300       0.00021700 
      47      -6.07714975       2.07746545       8.07508534       0.00082500      -0.00011000       0.00002900 
      47      -4.07670426       2.07735366      10.07495170       0.00000600      -0.00032700       0.00002500 
      47      -6.07682406       0.07758575      10.07473876       0.00012400      -0.00044800      -0.00005000 
      47      -4.07637857       0.07747396      12.07460512       0.00083700      -0.00067800      -0.00002100 
      47      -6.07649837      -1.92229395      12.07439218       0.00110800      -0.00064000      -0.00005100 
30
Lattice="-4.000239604678857 -3.9995358101183607 -0.0004258763831092 2.0010968829089837 -3.999871184995133 5.999173199554255 -6.056659426583935 6.056455470706025 8.05448970351682" Properties=Z:I:1:pos:R:3:vasp_force:R:3 uuid=2b1fd864-eef1-4c2b-b7e5-d43981aad281 vasp_virial="-0.04107294869134919 0.1065038839448011 -0.021137645042171985 0.1065038839448011 -0.022678333761838657 -0.08274102616264807 -0.021137645042171985 -0.08274102616264807 0.09135377820141216" vasp_energy=-127.00920666 pbc="T T T"
      46      -2.03360069      -3.96553862       2.03399351      -0.00123300       0.00126600       0.00040500 
      46      -0.03348088      -1.96577071       2.03420645      -0.00109600       0.00160900       0.00034100 
      46      -2.03327499      -5.96541832       4.03364693      -0.00149500       0.00152400      -0.00018100 
      46      -0.03315519      -3.96565041       4.03385987      -0.00169700       0.00189500      -0.00022900 
      46       1.96729031      -3.96576220       6.03372623      -0.00261600       0.00146700       0.00019400 
      46      -0.03282950      -5.96553011       6.03351329      -0.00256800       0.00154600       0.00074700 
      46      -4.01140384      -1.98838166       2.01058502       0.00675000      -0.00015800      -0.00483400 
      46      -2.01128404       0.01138624       2.01079796       0.00027400      -0.00373300      -0.00184900 
      46      -4.01107815      -3.98826136       4.01023844      -0.00906700       0.00841000       0.00066300 
      46      -2.01095835      -1.98849345       4.01045138      -0.00078400       0.00082700      -0.00062500 
      46      -0.01051285      -1.98860525       6.01031774      -0.00005000      -0.00011000      -0.00145700 
      46      -2.01063265      -3.98837315       6.01010480      -0.00034900      -0.00007400      -0.00110100 
      46      -5.99179093      -2.00553018       3.97834474       0.02053400      -0.03848200       0.05699900 
      46      -3.98899689      -0.01110764       3.98657488       0.00729100       0.00171400       0.00129900 
      46      -1.98855139      -0.01121943       5.98644124       0.00110900       0.00932300      -0.01230000 
      46      -3.98867120      -2.01098734       5.98622830      -0.00662700      -0.00219000      -0.00930500 
      46      -1.98822570      -2.01109913       7.98609466      -0.00730500      -0.00132100      -0.00866900 
      46      -3.98834550      -4.01086703       7.98588172       0.00217600       0.01128800      -0.01195300 
      47      -6.00178961       0.00199480       6.00063622      -0.00002800      -0.00260200      -0.00218500 
      47      -4.00166981       2.00176271       6.00084916       0.00533600       0.00001600      -0.00493000 
      47      -6.00146392      -1.99788490       8.00028964      -0.00087500       0.00027400      -0.00146500 