  30
   1   1
     5.340721297811508    -0.026217333808002    -0.042472676199449
    -0.018722751087923     5.367745227636147    -0.011273967434820
    -0.043213234152792    -0.030883623453972     5.570575292240466
   1   2
     0.010097459672544     0.001920524410051     0.002370462444578
     0.001666444543731     0.001656417043793     0.002799664245603
     0.002399996772104     0.003473975906914    -0.030031242107624
   1   3
     0.010103693448161     0.001917470924117     0.002375192837190
     0.001671398632947     0.001662493122274     0.002793195941975
     0.002392859622571     0.003470829025648    -0.030021068453192
   1   4
    -0.024503448134189    -0.044167259155282     0.007991497090456
    -0.044412830423970    -0.019066657783144     0.037639774095735
     0.007988712611381     0.038297965374101    -0.018496158506312
   1   5
    -0.036731386755109     0.020741592580352    -0.003197596590466
     0.020484082990880    -0.040064352397571    -0.019721988645306
    -0.003167310332222    -0.019047459429501    -0.044813352009663
   1   6
    -0.036733601646777     0.020734590670057    -0.003189598934944
     0.020482468214129    -0.040072713923929    -0.019721006925596
    -0.003167857542925    -0.019039333566946    -0.044823004463129
   1   7
     0.087759446979539     0.000127499965536     0.009069543662524
     0.014539617496866    -0.707576271906253     0.766115820973517
     0.003250527491038     0.789870052283226    -0.707090735174602
   1   8
     0.074720170014932     0.011231309459204    -0.004828104507769
     0.019715230129969    -0.707463047628002    -0.769942021251890
    -0.005602959778756    -0.804027449056821    -0.704163275382012
   1   9
     0.008715954962792     0.021989111997367    -0.005327415074943
     0.019503872054125    -0.016510221135332     0.012194796529867
    -0.000342752489963     0.024790959446872    -0.002169446458223
   1  10
    -0.658431139835496    -0.712870767235345    -0.004334268750696
    -0.732371167061951    -0.670434912576628    -0.001486559645570
    -0.000510862289809     0.004374184412368     0.089450029770014
   1  11
     0.000618012285401    -0.000457183625715     0.020207925896628
     0.004314619218803    -0.005732283514256     0.019067050068175
     0.013047438080459     0.014583030984938    -0.013937401140914
   1  12
    -0.028134606927099    -0.000152770403966    -0.020976652658620
    -0.003087847121709     0.011707138334210    -0.023432535001874
    -0.015271834236132    -0.020320742681497    -0.002970804920567
   1  13
    -0.709115227175295    -0.016000364584852     0.789498750057732
     0.001907663825090     0.098620642537845    -0.002119715040502
     0.816761518659361     0.000485722139213    -0.722265263699302
   1  14
    -0.023993484457651    -0.018035721343484     0.011050328390567
    -0.021880632732287    -0.000200142510400    -0.007259780436525
     0.019790675799983    -0.005386794660213    -0.007546524499408
   1  15
    -0.700812480802261    -0.029442189563577    -0.776092926989972
    -0.021786820318843     0.077261591571652     0.009752673204250
    -0.812594788298259     0.004415115316842    -0.706327629306669
   1  16
     0.014302269477481    -0.007574598741491     0.018817460941064
    -0.007716588693519    -0.035983832260155    -0.026842424163418
     0.007829658639264    -0.018019932943774    -0.006754667748912
   1  17
    -0.698868900092553     0.767611076833899     0.004396141199144
     0.748914209576486    -0.689124245502826     0.008764978409076
     0.004291572582954     0.009625563363493     0.092601470917884
   1  18
     0.001694696674878    -0.004529851850408    -0.023263779578978
    -0.013236954335450     0.009511091004998     0.019176378630857
    -0.011978517993113     0.011715462264627    -0.011066472159356
   1  19
    -0.699601511679019     0.768512447913392     0.004378752210579
     0.749789787810251    -0.689906286083858     0.008787470130135
     0.004240725748656     0.009629261541870     0.092723599802481
   1  20
     0.014290851205105    -0.007556885868609     0.018835165979905
    -0.007728164133277    -0.035955955512271    -0.026840790717512
     0.007820786959236    -0.018040784614148    -0.006771695337001
   1  21
     0.001688875393148    -0.004523506960044    -0.023277656867210
    -0.013251403946792     0.009531252335455     0.019166457510125
    -0.011992453094692     0.011703339962072    -0.011062222711513
   1  22
    -0.023999158711131    -0.018037287960051     0.011052546103228
    -0.021872310362842    -0.000190162187089    -0.007260967466057
     0.019769778751555    -0.005394121884762    -0.007541775993410
   1  23
    -0.708511848735011    -0.015975768447690     0.788675407840363
     0.001942450980986     0.098549853184533    -0.002149899911370
     0.815981694804505     0.000462928815081    -0.721497730876582
   1  24
    -0.700526895346604    -0.029376761779035    -0.775580276916490
    -0.021793023433480     0.077223695289565     0.009746711089451
    -0.812113940232238     0.004442703043653    -0.705798044572099
   1  25
     0.087677713444282     0.000149266628475     0.009041826904818
     0.014621702958535    -0.707081639064541     0.765476253976290
     0.003146742356951     0.789317885482909    -0.706570035379159
   1  26
     0.008738510178129     0.022011129846191    -0.005328183762865
     0.019520813083188    -0.016504642029483     0.012196074263845
    -0.000363499157801     0.024793519106902    -0.002165201678365
   1  27
     0.074721317704841     0.011301892653637    -0.004773461720862
     0.019785941446605    -0.707399731756741    -0.769755912570886
    -0.005556998968091    -0.803937825599036    -0.703979671594513
   1  28
    -0.658416341416185    -0.712701895508153    -0.004374674514317
    -0.732255464657853    -0.670213738777539    -0.001507328314781
    -0.000576967978787     0.004337615288180     0.089445230905027
   1  29
    -0.028097456784869    -0.000178865432948    -0.020971492921858
    -0.003076411621494     0.011724354175527    -0.023435346115616
    -0.015293908645637    -0.020286604255854    -0.002976179780488
   1  30
     0.000625242349028    -0.000447931398260     0.020230029275566
     0.004332802129762    -0.005714727050678     0.019072784807904
     0.013035917070414     0.014596814438340    -0.013956525621751
   2   1
     0.010103693448161     0.001917470924117     0.002375192837190
     0.001671398632947     0.001662493122274     0.002793195941975
     0.002392859622571     0.003470829025648    -0.030021068453192
   2   2
     5.340721297811508    -0.026217333808001    -0.042472676199448
    -0.018722751087923     5.367745227636147    -0.011273967434821
    -0.043213234152792    -0.030883623453973     5.570575292240466
   2   3
     0.010097459672544     0.001920524410051     0.002370462444578
     0.001666444543731     0.001656417043793     0.002799664245603
     0.002399996772104     0.003473975906914    -0.030031242107624
   2   4
    -0.036733601646777     0.020734590670057    -0.003189598934944
     0.020482468214129    -0.040072713923929    -0.019721006925596
    -0.003167857542925    -0.019039333566946    -0.044823004463129
   2   5
    -0.024503448134189    -0.044167259155282     0.007991497090456
    -0.044412830423970    -0.019066657783144     0.037639774095735
     0.007988712611381     0.038297965374101    -0.018496158506312
   2   6
    -0.036731386755109     0.020741592580352    -0.003197596590466
     0.020484082990880    -0.040064352397571    -0.019721988645306
    -0.003167310332222    -0.019047459429501    -0.044813352009663
   2   7
     0.008715954962792     0.021989111997367    -0.005327415074943
     0.019503872054125    -0.016510221135332     0.012194796529867
    -0.000342752489963     0.024790959446872    -0.002169446458223
   2   8
     0.087759446979539     0.000127499965536     0.009069543662524
     0.014539617496866    -0.707576271906253     0.766115820973517
     0.003250527491038     0.789870052283226    -0.707090735174602
   2   9
     0.074720170014932     0.011231309459204    -0.004828104507769
     0.019715230129969    -0.707463047628002    -0.769942021251890
    -0.005602959778756    -0.804027449056821    -0.704163275382012
   2  10
    -0.028134606927099    -0.000152770403966    -0.020976652658620
    -0.003087847121709     0.011707138334210    -0.023432535001874
    -0.015271834236132    -0.020320742681497    -0.002970804920567
   2  11
    -0.658431139835496    -0.712870767235345    -0.004334268750696
    -0.732371167061951    -0.670434912576628    -0.001486559645570
    -0.000510862289809     0.004374184412368     0.089450029770014
   2  12
     0.000618012285401    -0.000457183625715     0.020207925896628
     0.004314619218803    -0.005732283514256     0.019067050068175
     0.013047438080459     0.014583030984938    -0.013937401140914
   2  13
    -0.700812480802261    -0.029442189563577    -0.776092926989972
    -0.021786820318843     0.077261591571652     0.009752673204250
    -0.812594788298259     0.004415115316842    -0.706327629306669
   2  14
    -0.709115227175295    -0.016000364584852     0.789498750057732
     0.001907663825089     0.098620642537845    -0.002119715040502
     0.816761518659361     0.000485722139213    -0.722265263699302
   2  15
    -0.023993484457651    -0.018035721343484     0.011050328390567
    -0.021880632732287    -0.000200142510400    -0.007259780436525
     0.019790675799983    -0.005386794660213    -0.007546524499408
   2  16
     0.001694696674878    -0.004529851850408    -0.023263779578978
    -0.013236954335450     0.009511091004998     0.019176378630857
    -0.011978517993113     0.011715462264627    -0.011066472159356
   2  17
     0.014302269477481    -0.007574598741491     0.018817460941064
    -0.007716588693519    -0.035983832260155    -0.026842424163418
     0.007829658639264    -0.018019932943774    -0.006754667748912
   2  18
    -0.698868900092553     0.767611076833899     0.004396141199144
     0.748914209576486    -0.689124245502826     0.008764978409076
     0.004291572582954     0.009625563363493     0.092601470917884
   2  19
     0.001688875393148    -0.004523506960044    -0.023277656867210
    -0.013251403946792     0.009531252335455     0.019166457510125
    -0.011992453094692     0.011703339962072    -0.011062222711513
   2  20
    -0.699601511679019     0.768512447913392     0.004378752210579
     0.749789787810251    -0.689906286083858     0.008787470130135
     0.004240725748656     0.009629261541870     0.092723599802481
   2  21
     0.014290851205105    -0.007556885868609     0.018835165979905
    -0.007728164133277    -0.035955955512271    -0.026840790717512
     0.007820786959236    -0.018040784614148    -0.006771695337001
   2  22
    -0.700526895346604    -0.029376761779035    -0.775580276916490
    -0.021793023433480     0.077223695289565     0.009746711089451
    -0.812113940232238     0.004442703043653    -0.705798044572099
   2  23
    -0.023999158711131    -0.018037287960051     0.011052546103228
    -0.021872310362842    -0.000190162187089    -0.007260967466057
     0.019769778751555    -0.005394121884762    -0.007541775993410
   2  24
    -0.708511848735011    -0.015975768447690     0.788675407840363
     0.001942450980986     0.098549853184533    -0.002149899911370
     0.815981694804505     0.000462928815081    -0.721497730876582
   2  25
     0.074721317704841     0.011301892653637    -0.004773461720862
     0.019785941446605    -0.707399731756740    -0.769755912570886
    -0.005556998968091    -0.803937825599036    -0.703979671594513
   2  26
     0.087677713444282     0.000149266628475     0.009041826904818
     0.014621702958535    -0.707081639064542     0.765476253976290
     0.003146742356951     0.789317885482909    -0.706570035379159
   2  27
     0.008738510178129     0.022011129846191    -0.005328183762865
     0.019520813083188    -0.016504642029483     0.012196074263845
    -0.000363499157801     0.024793519106902    -0.002165201678365
   2  28
     0.000625242349028    -0.000447931398260     0.020230029275566
     0.004332802129762    -0.005714727050678     0.019072784807904
     0.013035917070414     0.014596814438340    -0.013956525621751
   2  29
    -0.658416341416185    -0.712701895508153    -0.004374674514317
    -0.732255464657853    -0.670213738777539    -0.001507328314781
    -0.000576967978787     0.004337615288180     0.089445230905027
   2  30
    -0.028097456784869    -0.000178865432948    -0.020971492921858
    -0.003076411621494     0.011724354175527    -0.023435346115616
    -0.015293908645637    -0.020286604255854    -0.002976179780488
   3   1
     0.010097459672544     0.001920524410051     0.002370462444578
     0.001666444543731     0.001656417043793     0.002799664245603
     0.002399996772104     0.003473975906914    -0.030031242107624
   3   2
     0.010103693448161     0.001917470924117     0.002375192837190
     0.001671398632947     0.001662493122274     0.002793195941975
     0.002392859622571     0.003470829025648    -0.030021068453192
   3   3
     5.340721297811508    -0.026217333808001    -0.042472676199448
    -0.018722751087923     5.367745227636147    -0.011273967434821
    -0.043213234152792    -0.030883623453973     5.570575292240466
   3   4
    -0.036731386755109     0.020741592580352    -0.003197596590466
     0.020484082990880    -0.040064352397571    -0.019721988645306
    -0.003167310332222    -0.019047459429501    -0.044813352009663
   3   5
    -0.036733601646777     0.020734590670057    -0.003189598934944
     0.020482468214129    -0.040072713923929    -0.019721006925596
    -0.003167857542925    -0.019039333566946    -0.044823004463129
   3   6
    -0.024503448134189    -0.044167259155282     0.007991497090456
    -0.044412830423970    -0.019066657783144     0.037639774095735
     0.007988712611381     0.038297965374101    -0.018496158506312
   3   7
     0.074720170014932     0.011231309459204    -0.004828104507769
     0.019715230129969    -0.707463047628002    -0.769942021251890
    -0.005602959778756    -0.804027449056821    -0.704163275382012
   3   8
     0.008715954962792     0.021989111997367    -0.005327415074943
     0.019503872054125    -0.016510221135332     0.012194796529867
    -0.000342752489963     0.024790959446872    -0.002169446458223
   3   9
     0.087759446979539     0.000127499965536     0.009069543662524
     0.014539617496866    -0.707576271906253     0.766115820973517
     0.003250527491038     0.789870052283226    -0.707090735174602
   3  10
     0.000618012285401    -0.000457183625715     0.020207925896628
     0.004314619218803    -0.005732283514256     0.019067050068175
     0.013047438080459     0.014583030984938    -0.013937401140914
   3  11
    -0.028134606927099    -0.000152770403966    -0.020976652658620
    -0.003087847121709     0.011707138334210    -0.023432535001874
    -0.015271834236132    -0.020320742681497    -0.002970804920567
   3  12
    -0.658431139835496    -0.712870767235345    -0.004334268750696
    -0.732371167061951    -0.670434912576628    -0.001486559645570
    -0.000510862289809     0.004374184412368     0.089450029770014
   3  13
    -0.023993484457651    -0.018035721343484     0.011050328390567
    -0.021880632732287    -0.000200142510400    -0.007259780436525
     0.019790675799983    -0.005386794660213    -0.007546524499408
   3  14
    -0.700812480802261    -0.029442189563577    -0.776092926989972
    -0.021786820318843     0.077261591571652     0.009752673204250
    -0.812594788298259     0.004415115316842    -0.706327629306669
   3  15
    -0.709115227175295    -0.016000364584852     0.789498750057732
     0.001907663825089     0.098620642537845    -0.002119715040502
     0.816761518659361     0.000485722139213    -0.722265263699302
   3  16
    -0.698868900092553     0.767611076833899     0.004396141199144
     0.748914209576486    -0.689124245502826     0.008764978409076
     0.004291572582954     0.009625563363493     0.092601470917884
   3  17
     0.001694696674878    -0.004529851850408    -0.023263779578978
    -0.013236954335450     0.009511091004998     0.019176378630857
    -0.011978517993113     0.011715462264627    -0.011066472159356
   3  18
     0.014302269477481    -0.007574598741491     0.018817460941064
    -0.007716588693519    -0.035983832260155    -0.026842424163418
     0.007829658639264    -0.018019932943774    -0.006754667748912
   3  19
     0.014290851205105    -0.007556885868609     0.018835165979905
    -0.007728164133277    -0.035955955512271    -0.026840790717512
     0.007820786959236    -0.018040784614148    -0.006771695337001
   3  20
     0.001688875393148    -0.004523506960044    -0.023277656867210
    -0.013251403946792     0.009531252335455     0.019166457510125
    -0.011992453094692     0.011703339962072    -0.011062222711513
   3  21
    -0.699601511679019     0.768512447913392     0.004378752210579
     0.749789787810251    -0.689906286083858     0.008787470130135
     0.004240725748656     0.009629261541870     0.092723599802481
   3  22
    -0.708511848735011    -0.015975768447690     0.788675407840363
     0.001942450980986     0.098549853184533    -0.002149899911370
     0.815981694804505     0.000462928815081    -0.721497730876582
   3  23
    -0.700526895346604    -0.029376761779035    -0.775580276916490
    -0.021793023433480     0.077223695289565     0.009746711089451
    -0.812113940232238     0.004442703043653    -0.705798044572099
   3  24
    -0.023999158711131    -0.018037287960051     0.011052546103228
    -0.021872310362842    -0.000190162187089    -0.007260967466057
     0.019769778751555    -0.005394121884762    -0.007541775993410
   3  25
     0.008738510178129     0.022011129846191    -0.005328183762865
     0.019520813083188    -0.016504642029483     0.012196074263845
    -0.000363499157801     0.024793519106902    -0.002165201678365
   3  26
     0.074721317704841     0.011301892653637    -0.004773461720862
     0.019785941446605    -0.707399731756740    -0.769755912570886
    -0.005556998968091    -0.803937825599036    -0.703979671594513
   3  27
     0.087677713444282     0.000149266628475     0.009041826904818
     0.014621702958535    -0.707081639064542     0.765476253976290
     0.003146742356951     0.789317885482909    -0.706570035379159
   3  28
    -0.028097456784869    -0.000178865432948    -0.020971492921858
    -0.003076411621494     0.011724354175527    -0.023435346115616
    -0.015293908645637    -0.020286604255854    -0.002976179780488
   3  29
     0.000625242349028    -0.000447931398260     0.020230029275566
     0.004332802129762    -0.005714727050678     0.019072784807904
     0.013035917070414     0.014596814438340    -0.013956525621751
   3  30
    -0.658416341416185    -0.712701895508153    -0.004374674514317
    -0.732255464657853    -0.670213738777539    -0.001507328314781
    -0.000576967978787     0.004337615288180     0.089445230905027
   4   1
    -0.024503448134189    -0.044167259155282     0.007991497090456
    -0.044412830423970    -0.019066657783144     0.037639774095735
     0.007988712611381     0.038297965374101    -0.018496158506312
   4   2
    -0.036731386755109     0.020741592580352    -0.003197596590466
     0.020484082990880    -0.040064352397571    -0.019721988645306
    -0.003167310332222    -0.019047459429501    -0.044813352009663
   4   3
    -0.036733601646777     0.020734590670057    -0.003189598934944
     0.020482468214129    -0.040072713923929    -0.019721006925596
    -0.003167857542925    -0.019039333566946    -0.044823004463129
   4   4
     5.340721297811508    -0.026217333808001    -0.042472676199448
    -0.018722751087923     5.367745227636147    -0.011273967434821
    -0.043213234152792    -0.030883623453973     5.570575292240466
   4   5
     0.010097459672544     0.001920524410051     0.002370462444578
     0.001666444543731     0.001656417043793     0.002799664245603
     0.002399996772104     0.003473975906914    -0.030031242107624
   4   6
     0.010103693448161     0.001917470924117     0.002375192837190
     0.001671398632947     0.001662493122274     0.002793195941975
     0.002392859622571     0.003470829025648    -0.030021068453192
   4   7
    -0.658431139835496    -0.712870767235345    -0.004334268750696
    -0.732371167061951    -0.670434912576628    -0.001486559645570
    -0.000510862289809     0.004374184412368     0.089450029770014
   4   8
     0.000618012285401    -0.000457183625715     0.020207925896628
     0.004314619218803    -0.005732283514256     0.019067050068175
     0.013047438080459     0.014583030984938    -0.013937401140914
   4   9
    -0.028134606927099    -0.000152770403966    -0.020976652658620
    -0.003087847121709     0.011707138334210    -0.023432535001874
    -0.015271834236132    -0.020320742681497    -0.002970804920567
   4  10
     0.087759446979539     0.000127499965536     0.009069543662524
     0.014539617496866    -0.707576271906253     0.766115820973517
     0.003250527491038     0.789870052283226    -0.707090735174602
   4  11
     0.074720170014932     0.011231309459204    -0.004828104507769
     0.019715230129969    -0.707463047628002    -0.769942021251890
    -0.005602959778756    -0.804027449056821    -0.704163275382012
   4  12
     0.008715954962792     0.021989111997367    -0.005327415074943
     0.019503872054125    -0.016510221135332     0.012194796529867
    -0.000342752489963     0.024790959446872    -0.002169446458223
   4  13
     0.014302269477481    -0.007574598741491     0.018817460941064
    -0.007716588693519    -0.035983832260155    -0.026842424163418
     0.007829658639264    -0.018019932943774    -0.006754667748912
   4  14
    -0.698868900092553     0.767611076833899     0.004396141199144
     0.748914209576486    -0.689124245502826     0.008764978409076
     0.004291572582954     0.009625563363493     0.092601470917884
   4  15
     0.001694696674878    -0.004529851850408    -0.023263779578978
    -0.013236954335450     0.009511091004998     0.019176378630857
    -0.011978517993113     0.011715462264627    -0.011066472159356
   4  16
    -0.709115227175295    -0.016000364584852     0.789498750057732
     0.001907663825089     0.098620642537845    -0.002119715040502
     0.816761518659361     0.000485722139213    -0.722265263699302
   4  17
    -0.023993484457651    -0.018035721343484     0.011050328390567
    -0.021880632732287    -0.000200142510400    -0.007259780436525
     0.019790675799983    -0.005386794660213    -0.007546524499408
   4  18
    -0.700812480802261    -0.029442189563577    -0.776092926989972
    -0.021786820318843     0.077261591571652     0.009752673204250
    -0.812594788298259     0.004415115316842    -0.706327629306669
   4  19
    -0.023999158711131    -0.018037287960051     0.011052546103228
    -0.021872310362842    -0.000190162187089    -0.007260967466057
     0.019769778751555    -0.005394121884762    -0.007541775993410
   4  20
    -0.708511848735011    -0.015975768447690     0.788675407840363
     0.001942450980986     0.098549853184533    -0.002149899911370
     0.815981694804505     0.000462928815081    -0.721497730876582
   4  21
    -0.700526895346604    -0.029376761779035    -0.775580276916490
    -0.021793023433480     0.077223695289565     0.009746711089451
    -0.812113940232238     0.004442703043653    -0.705798044572099
   4  22
    -0.699601511679019     0.768512447913392     0.004378752210579
     0.749789787810251    -0.689906286083858     0.008787470130135
     0.004240725748656     0.009629261541870     0.092723599802481
   4  23
     0.014290851205105    -0.007556885868609     0.018835165979905
    -0.007728164133277    -0.035955955512271    -0.026840790717512
     0.007820786959236    -0.018040784614148    -0.006771695337001
   4  24
     0.001688875393148    -0.004523506960044    -0.023277656867210
    -0.013251403946792     0.009531252335455     0.019166457510125
    -0.011992453094692     0.011703339962072    -0.011062222711513
   4  25
    -0.658416341416185    -0.712701895508153    -0.004374674514317
    -0.732255464657853    -0.670213738777539    -0.001507328314781
    -0.000576967978787     0.004337615288180     0.089445230905027
   4  26
    -0.028097456784869    -0.000178865432948    -0.020971492921858
    -0.003076411621494     0.011724354175527    -0.023435346115616
    -0.015293908645637    -0.020286604255854    -0.002976179780488
   4  27
     0.000625242349028    -0.000447931398260     0.020230029275566
     0.004332802129762    -0.005714727050678     0.019072784807904
     0.013035917070414     0.014596814438340    -0.013956525621751
   4  28
     0.087677713444282     0.000149266628475     0.009041826904818
     0.014621702958535    -0.707081639064542     0.765476253976290
     0.003146742356951     0.789317885482909    -0.706570035379159
   4  29
     0.008738510178129     0.022011129846191    -0.005328183762865
     0.019520813083188    -0.016504642029483     0.012196074263845
    -0.000363499157801     0.024793519106902    -0.002165201678365
   4  30
     0.074721317704841     0.011301892653637    -0.004773461720862
     0.019785941446605    -0.707399731756740    -0.769755912570886
    -0.005556998968091    -0.803937825599036    -0.703979671594513
   5   1
    -0.036733601646777     0.020734590670057    -0.003189598934944
     0.020482468214129    -0.040072713923929    -0.019721006925596
    -0.003167857542925    -0.019039333566946    -0.044823004463129
   5   2
    -0.024503448134189    -0.044167259155282     0.007991497090456
    -0.044412830423970    -0.019066657783144     0.037639774095735
     0.007988712611381     0.038297965374101    -0.018496158506312
   5   3
    -0.036731386755109     0.020741592580352    -0.003197596590466
     0.020484082990880    -0.040064352397571    -0.019721988645306
    -0.003167310332222    -0.019047459429501    -0.044813352009663
   5   4
     0.010103693448161     0.001917470924117     0.002375192837190
     0.001671398632947     0.001662493122274     0.002793195941975
     0.002392859622571     0.003470829025648    -0.030021068453192
   5   5
     5.340721297811508    -0.026217333808001    -0.042472676199448
    -0.018722751087923     5.367745227636147    -0.011273967434821
    -0.043213234152792    -0.030883623453973     5.570575292240466
   5   6
     0.010097459672544     0.001920524410051     0.002370462444578
     0.001666444543731     0.001656417043793     0.002799664245603
     0.002399996772104     0.003473975906914    -0.030031242107624
   5   7
    -0.028134606927099    -0.000152770403966    -0.020976652658620
    -0.003087847121709     0.011707138334210    -0.023432535001874
    -0.015271834236132    -0.020320742681497    -0.002970804920567
   5   8
    -0.658431139835496    -0.712870767235345    -0.004334268750696
    -0.732371167061951    -0.670434912576628    -0.001486559645570
    -0.000510862289809     0.004374184412368     0.089450029770014
   5   9
     0.000618012285401    -0.000457183625715     0.020207925896628
     0.004314619218803    -0.005732283514256     0.019067050068175
     0.013047438080459     0.014583030984938    -0.013937401140914
   5  10
     0.008715954962792     0.021989111997367    -0.005327415074943
     0.019503872054125    -0.016510221135332     0.012194796529867
    -0.000342752489963     0.024790959446872    -0.002169446458223
   5  11
     0.087759446979539     0.000127499965536     0.009069543662524
     0.014539617496866    -0.707576271906253     0.766115820973517
     0.003250527491038     0.789870052283226    -0.707090735174602
   5  12
     0.074720170014932     0.011231309459204    -0.004828104507769
     0.019715230129969    -0.707463047628002    -0.769942021251890
    -0.005602959778756    -0.804027449056821    -0.704163275382012
   5  13
     0.001694696674878    -0.004529851850408    -0.023263779578978
    -0.013236954335450     0.009511091004998     0.019176378630857
    -0.011978517993113     0.011715462264627    -0.011066472159356
   5  14
     0.014302269477481    -0.007574598741491     0.018817460941064
    -0.007716588693519    -0.035983832260155    -0.026842424163418
     0.007829658639264    -0.018019932943774    -0.006754667748912
   5  15
    -0.698868900092553     0.767611076833899     0.004396141199144
     0.748914209576486    -0.689124245502826     0.008764978409076
     0.004291572582954     0.009625563363493     0.092601470917884
   5  16
    -0.700812480802261    -0.029442189563577    -0.776092926989972
    -0.021786820318843     0.077261591571652     0.009752673204250
    -0.812594788298259     0.004415115316842    -0.706327629306669
   5  17
    -0.709115227175295    -0.016000364584852     0.789498750057732
     0.001907663825089     0.098620642537845    -0.002119715040502
     0.816761518659361     0.000485722139213    -0.722265263699302
   5  18
    -0.023993484457651    -0.018035721343484     0.011050328390567
    -0.021880632732287    -0.000200142510400    -0.007259780436525
     0.019790675799983    -0.005386794660213    -0.007546524499408
   5  19
    -0.700526895346604    -0.029376761779035    -0.775580276916490
    -0.021793023433480     0.077223695289565     0.009746711089451
    -0.812113940232238     0.004442703043653    -0.705798044572099
   5  20
    -0.023999158711131    -0.018037287960051     0.011052546103228
    -0.021872310362842    -0.000190162187089    -0.007260967466057
     0.019769778751555    -0.005394121884762    -0.007541775993410
   5  21
    -0.708511848735011    -0.015975768447690     0.788675407840363
     0.001942450980986     0.098549853184533    -0.002149899911370
     0.815981694804505     0.000462928815081    -0.721497730876582
   5  22
     0.001688875393148    -0.004523506960044    -0.023277656867210
    -0.013251403946792     0.009531252335455     0.019166457510125
    -0.011992453094692     0.011703339962072    -0.011062222711513
   5  23
    -0.699601511679019     0.768512447913392     0.004378752210579
     0.749789787810251    -0.689906286083858     0.008787470130135