30
Lattice="2.0332593467983022 -6.14380504807326 -4.0986139235727475 -4.093401843299395 -8.193663904070219 4.088067565021765 -6.13979461473078 -2.057043228134277 -4.104991326858949" Properties=Z:I:1:pos:R:3:vasp_force:R:3 uuid=36839849-a07e-4243-ae18-2c5c17d121e3 vasp_virial="0.11088623230346516 -0.4769267503861201 -0.4260044572210089 -0.4769267503861201 -0.2372091077854042 -0.10009728423095292 -0.4260044572210089 -0.10009728423095292 0.4597267453464348" vasp_energy=-97.8453593 pbc="T T T"
      46      -4.09951755      -6.15974373      -6.15915285      -0.01409000       0.04258300       0.03040200 
      46      -4.09779405      -6.14932855      -2.05657806       0.00072300      -0.00018700      -0.00008300 
      46      -2.06015689     -12.29073880      -2.05796772       0.00058300      -0.00027800      -0.00022400 
      46      -6.14887278     -10.24855529      -4.10976855      -0.00001000      -0.00021700       0.00011100 
      46      -6.14449497     -10.24616050      -0.01254428       0.00096800      -0.00069000      -0.00032600 
      46      -0.01345597      -8.19390685      -4.10200150       0.00082800      -0.00078500      -0.00047100 
      47      -2.04615216     -10.25097301      -0.00799274       0.00275700      -0.00197000       0.00260200 
      47      -4.08816712      -4.11195754      -4.10382736       0.00297600      -0.00977500      -0.01013700 
      47      -4.08378931      -4.10956275      -0.00660309       0.00356400      -0.00056000      -0.00009900 
      47       0.00054876      -6.15414106      -2.05202652      -0.00131400      -0.00399200       0.00075400 
      47      -6.13486804      -8.20878950      -2.05979357       0.00313600       0.00002300      -0.00044100 
      47      -6.13049024      -8.20639470       2.03743070       0.00339700      -0.00051300      -0.00034900 
      47      -6.13469670      -6.14272363      -4.10762548       0.00648700      -0.00164000      -0.00299300 
      47      -4.09705955     -12.28413389      -4.10901513       0.00094800      -0.00142400       0.00295700 
      47      -4.09268174     -12.28173910      -0.01179086      -0.00215700      -0.00144600       0.00170400 
      47      -8.18139762     -10.23955558      -2.06359170       0.00025200      -0.00281900       0.00259900 
      47      -2.05035863      -8.18730193      -6.15304892       0.00900600      -0.00909800       0.00366300 
      47      -2.04598082      -8.18490714      -2.05582464       0.00033300      -0.00202300       0.00349600 
      47      -4.10738092     -10.25285133       2.03844617       0.00657600      -0.00509200      -0.00246000 
      47      -6.14939589      -4.11383586      -2.05738845      -0.00165300       0.00119200      -0.00303700 
      47      -4.11175873     -10.25524612      -2.05877810      -0.00112400       0.00271300      -0.00239500 
      47      -2.06068000      -6.15601938      -0.00558761      -0.00115500       0.00230300      -0.00311900 
      47      -8.19609681      -8.21066782      -0.01335467       0.00475800       0.00241400      -0.00879000 
      47      -2.06505781      -6.15841417      -4.10281188      -0.00360700       0.00327700      -0.00419600 
      47      -4.11163004      -8.18920654      -4.10648197      -0.00304500      -0.00123700       0.00237800 
      47      -4.10725224      -8.18681175      -0.00925769      -0.00263400       0.00063900      -0.00059000 
      47      -2.06961508     -14.32822201      -0.01064735      -0.00342900      -0.00955900      -0.01042100 
      47      -6.15833097     -12.28603849      -2.06244818      -0.00703500      -0.00324000       0.00051000 
      47      -2.06055131      -4.08997980      -2.05329148      -0.00279400       0.00068000      -0.00083700 
      47      -0.02291416     -10.23139005      -2.05468113      -0.00324400       0.00072000      -0.00020900 
30
Lattice="2.0332593467983022 -6.14380504807326 -4.0986139235727475 -4.093401843299395 -8.193663904070219 4.088067565021765 -6.13979461473078 -2.057043228134277 -4.104991326858949" Properties=Z:I:1:pos:R:3:vasp_force:R:3 uuid=a2c95d18-089b-42a1-a595-3fc4c791fcd9 vasp_virial="0.10934128320466242 -0.47722867391062623 -0.42774533541550175 -0.47722867391062623 -0.2419949168440655 -0.10045059899367291 -0.42774533541550175 -0.10045059899367291 0.4603241684906703" vasp_energy=-97.84535718 pbc="T T T"
      46      -4.10217185      -6.15172334      -6.15380234      -0.00006300       0.00822700      -0.00917500 
      46      -4.09779405      -6.14932855      -2.05657806       0.00049000      -0.00013900      -0.00012300 
      46      -2.06015689     -12.29073880      -2.05796772       0.00017700       0.00221900       0.00363900 
      46      -6.14887278     -10.24855529      -4.10976855       0.00894800       0.00824000       0.00030200 
      46      -6.14449497     -10.24616050      -0.01254428       0.00076000      -0.00042600       0.00030300 
      46      -0.01345597      -8.19390685      -4.10200150       0.00066800      -0.00023300      -0.00028800 
      47      -2.04207107     -10.24280399      -0.01206851      -0.02022000      -0.04406700       0.02284500 
      47      -4.08816712      -4.11195754      -4.10382736       0.00297700      -0.00017300      -0.00061900 
      47      -4.08378931      -4.10956275      -0.00660309       0.00333800      -0.00070800      -0.00048200 
      47       0.00054876      -6.15414106      -2.05202652       0.00310500      -0.00015100      -0.00001700 
      47      -6.13486804      -8.20878950      -2.05979357       0.00307300       0.00009600      -0.00039000 
      47      -6.13049024      -8.20639470       2.03743070       0.00348100      -0.00042000      -0.00017300 
      47      -6.13469670      -6.14272363      -4.10762548       0.00043200      -0.00246400       0.00273600 
      47      -4.09705955     -12.28413389      -4.10901513       0.00115200      -0.00160100       0.00330300 
      47      -4.09268174     -12.28173910      -0.01179086       0.01061500       0.00748800       0.00386200 
      47      -8.18139762     -10.23955558      -2.06359170      -0.00014000      -0.00001500       0.00636900 
      47      -2.05035863      -8.18730193      -6.15304892       0.00080400      -0.00132000       0.00308000 
      47      -2.04598082      -8.18490714      -2.05582464       0.00005500       0.00667700      -0.00568100 
      47      -4.10738092     -10.25285133       2.03844617       0.00469400       0.00130900      -0.00893300 
      47      -6.14939589      -4.11383586      -2.05738845      -0.00137200       0.00154900      -0.00275000 
      47      -4.11175873     -10.25524612      -2.05877810      -0.00111500       0.00170500      -0.00200700 
      47      -2.06068000      -6.15601938      -0.00558761      -0.00118200       0.00268800      -0.00286800 
      47      -8.19609681      -8.21066782      -0.01335467      -0.00574500       0.00441300      -0.00223700 
      47      -2.06505781      -6.15841417      -4.10281188      -0.00094700       0.00262100      -0.00264800 
      47      -4.11163004      -8.18920654      -4.10648197      -0.00258900       0.00087300      -0.00036000 
      47      -4.10725224      -8.18681175      -0.00925769      -0.00615900       0.00302900      -0.00011300 
      47      -2.06961508     -14.32822201      -0.01064735      -0.00330100       0.00112000      -0.00019700 
      47      -6.15833097     -12.28603849      -2.06244818      -0.00316300      -0.00078700       0.00056600 
      47      -2.06055131      -4.08997980      -2.05329148      -0.00247100       0.00067800      -0.00070600 
      47      -0.02291416     -10.23139005      -2.05468113       0.00369900      -0.00043000      -0.00723800 
30
Lattice="2.0332593467983022 -6.14380504807326 -4.0986139235727475 -4.093401843299395 -8.193663904070219 4.088067565021765 -6.13979461473078 -2.057043228134277 -4.104991326858949" Properties=Z:I:1:pos:R:3:vasp_force:R:3 uuid=4e66c560-2312-48e3-9826-438b7eb6735b vasp_virial="0.10915820191852571 -0.47317518999651176 -0.42732778160501445 -0.47317518999651176 -0.23671446711759622 -0.0998820834209326 -0.42732778160501445 -0.0998820834209326 0.45733384081710415" vasp_energy=-97.84531986 pbc="T T T"
      46      -4.10217185      -6.15172334      -6.15380234       0.00096000       0.00192800      -0.00170500 
      46      -4.09779405      -6.14932855      -2.05657806       0.00080500      -0.00003800       0.00013400 
      46      -2.06015689     -12.29073880      -2.05796772       0.00118800      -0.00625700      -0.00611800 
      46      -6.14887278     -10.24855529      -4.10976855      -0.00685100      -0.00789200       0.00040400 
      46      -6.14449497     -10.24616050      -0.01254428       0.00036800      -0.00033300      -0.00011300 
      46      -0.01345597      -8.19390685      -4.10200150       0.00067600      -0.00018500       0.00000400 
      47      -2.05416047     -10.25365607      -0.01334700       0.04822500       0.01443000       0.02926400 
      47      -4.08816712      -4.11195754      -4.10382736       0.00319900       0.00008400      -0.00075800 
      47      -4.08378931      -4.10956275      -0.00660309       0.00356400      -0.00047600      -0.00039500 
      47       0.00054876      -6.15414106      -2.05202652       0.00271900      -0.00060500       0.00033800 
      47      -6.13486804      -8.20878950      -2.05979357       0.00266200      -0.00003000      -0.00064800 
      47      -6.13049024      -8.20639470       2.03743070       0.00301600      -0.00049800      -0.00032000 
      47      -6.13469670      -6.14272363      -4.10762548       0.00033000      -0.00239700       0.00295300 
      47      -4.09705955     -12.28413389      -4.10901513       0.00040100      -0.00151700       0.00297300 
      47      -4.09268174     -12.28173910      -0.01179086      -0.00824000      -0.01143400       0.00407500 
      47      -8.18139762     -10.23955558      -2.06359170       0.00122000      -0.00832400      -0.00254100 
      47      -2.05035863      -8.18730193      -6.15304892       0.00098000      -0.00135500       0.00312900 
      47      -2.04598082      -8.18490714      -2.05582464       0.00129000       0.00000700       0.00175800 
      47      -4.10738092     -10.25285133       2.03844617      -0.00252400       0.00268700      -0.00032900 
      47      -6.14939589      -4.11383586      -2.05738845      -0.00175600       0.00141600      -0.00260100 
      47      -4.11175873     -10.25524612      -2.05877810      -0.01077200       0.00279300      -0.01256400 
      47      -2.06068000      -6.15601938      -0.00558761      -0.00102400       0.00205300      -0.00297800 
      47      -8.19609681      -8.21066782      -0.01335467      -0.00545600       0.00663900      -0.00200600 
      47      -2.06505781      -6.15841417      -4.10281188      -0.00106000       0.00250700      -0.00261300 
      47      -4.11163004      -8.18920654      -4.10648197      -0.00344300       0.00000600      -0.00021500 
      47      -4.10725224      -8.18681175      -0.00925769      -0.00574300       0.00460800      -0.00018200 
      47      -2.06961508     -14.32822201      -0.01064735      -0.00324000       0.00042700      -0.00019900 
      47      -6.15833097     -12.28603849      -2.06244818      -0.01380200       0.00024600      -0.01100300 
      47      -2.06055131      -4.08997980      -2.05329148      -0.00287500       0.00055200      -0.00050200 
      47      -0.02291416     -10.23139005      -2.05468113      -0.00481900       0.00096100       0.00275900 
30
Lattice="2.0332593467983022 -6.14380504807326 -4.0986139235727475 -4.093401843299395 -8.193663904070219 4.088067565021765 -6.13979461473078 -2.057043228134277 -4.104991326858949" Properties=Z:I:1:pos:R:3:vasp_force:R:3 uuid=d08b55e6-3298-4135-92bd-3bb3941a5b39 vasp_virial="0.11410139664421678 -0.47952200791591765 -0.4234316833579298 -0.47952200791591765 -0.23771980821515395 -0.10075894642295577 -0.4234316833579298 -0.10075894642295577 0.46451255440509603" vasp_energy=-97.84537985 pbc="T T T"
      46      -4.10217185      -6.15172334      -6.15380234      -0.00052600      -0.00274000       0.00158200 
      46      -4.09779405      -6.14932855      -2.05657806       0.00062100      -0.00042100       0.00003200 
      46      -2.06015689     -12.29073880      -2.05796772       0.00000300       0.00543500       0.00583000 
      46      -6.14887278     -10.24855529      -4.10976855       0.00758300       0.00742100      -0.00055800 
      46      -6.14449497     -10.24616050      -0.01254428       0.00106200      -0.00012600       0.00027800 
      46      -0.01345597      -8.19390685      -4.10200150       0.00046300      -0.00046200      -0.00013000 
      47      -2.03814385     -10.24828995      -0.00263848      -0.04138600      -0.01443300      -0.02850600 
      47      -4.08816712      -4.11195754      -4.10382736       0.00283400      -0.00014200      -0.00013600 
      47      -4.08378931      -4.10956275      -0.00660309       0.00328000      -0.00055800       0.00003400 
      47       0.00054876      -6.15414106      -2.05202652       0.00296300      -0.00045000       0.00023000 
      47      -6.13486804      -8.20878950      -2.05979357       0.00337300      -0.00002400      -0.00024500 
      47      -6.13049024      -8.20639470       2.03743070       0.00382700      -0.00054000      -0.00004300 
      47      -6.13469670      -6.14272363      -4.10762548       0.00026900      -0.00253600       0.00288200 
      47      -4.09705955     -12.28413389      -4.10901513       0.00147900      -0.00139900       0.00322900 
      47      -4.09268174     -12.28173910      -0.01179086       0.00894800       0.00671300       0.00269500 
      47      -8.18139762     -10.23955558      -2.06359170      -0.00067500       0.00354400       0.00851400 
      47      -2.05035863      -8.18730193      -6.15304892       0.00090200      -0.00156100       0.00307800 
      47      -2.04598082      -8.18490714      -2.05582464      -0.00028000      -0.00438700       0.00497100 
      47      -4.10738092     -10.25285133       2.03844617       0.00022400       0.00185700      -0.00561300 
      47      -6.14939589      -4.11383586      -2.05738845      -0.00146000       0.00165800      -0.00283700 
      47      -4.11175873     -10.25524612      -2.05877810       0.00840900       0.00233100       0.00703000 
      47      -2.06068000      -6.15601938      -0.00558761      -0.00129700       0.00248300      -0.00297000 
      47      -8.19609681      -8.21066782      -0.01335467       0.00226400      -0.00363500      -0.00345400 
      47      -2.06505781      -6.15841417      -4.10281188      -0.00086800       0.00258400      -0.00245600 
      47      -4.11163004      -8.18920654      -4.10648197      -0.00246500       0.00036900       0.00033300 
      47      -4.10725224      -8.18681175      -0.00925769       0.00016000      -0.00318100      -0.00114100 
      47      -2.06961508     -14.32822201      -0.01064735      -0.00347300       0.00091900      -0.00023500 
      47      -6.15833097     -12.28603849      -2.06244818       0.00837000       0.00009600       0.01164200 
      47      -2.06055131      -4.08997980      -2.05329148      -0.00268200       0.00080800      -0.00084100 
      47      -0.02291416     -10.23139005      -2.05468113      -0.00192200       0.00037700      -0.00319600 
30
Lattice="2.0332593467983022 -6.14380504807326 -4.0986139235727475 -4.093401843299395 -8.193663904070219 4.088067565021765 -6.13979461473078 -2.057043228134277 -4.104991326858949" Properties=Z:I:1:pos:R:3:vasp_force:R:3 uuid=40701311-a8c4-4ae5-aad3-272597183474 vasp_virial="0.11126845463768038 -0.4805915880612426 -0.42644128274582616 -0.4805915880612426 -0.2409157008415754 -0.10249982461744866 -0.42644128274582616 -0.10249982461744866 0.4569644662924424" vasp_energy=-97.84535021 pbc="T T T"
      46      -4.10217185      -6.15172334      -6.15380234       0.00632000       0.00040400      -0.00616100 
      46      -4.09779405      -6.14932855      -2.05657806      -0.00178600       0.00049600      -0.00151200 
      46      -2.06015689     -12.29073880      -2.05796772       0.00057400      -0.00029700      -0.00019900 
      46      -6.14887278     -10.24855529      -4.10976855       0.00025100      -0.00080300      -0.00025400 
      46      -6.14449497     -10.24616050      -0.01254428       0.00057300      -0.00001100       0.00015000 
      46      -0.01345597      -8.19390685      -4.10200150       0.00846100      -0.00764300       0.00047400 
      47      -2.04615216     -10.25097301      -0.00799274       0.00295200      -0.00045700       0.00022800 
      47      -4.08816712      -4.11195754      -4.10382736      -0.00191200      -0.00384900       0.00027400 
      47      -4.08378931      -4.10956275      -0.00660309       0.00349900      -0.00050500      -0.00022600 
      47       0.00054876      -6.15414106      -2.05202652       0.00258400      -0.01027500      -0.00967200 
      47      -6.13486804      -8.20878950      -2.05979357       0.00269400      -0.00147500       0.00208600 
      47      -6.13049024      -8.20639470       2.03743070       0.00345700      -0.00061600      -0.00000600 
      47      -6.13204240      -6.15074402      -4.11297599      -0.01498300       0.04285900       0.03207100 
      47      -4.09705955     -12.28413389      -4.10901513       0.00088000      -0.00128800       0.00281800 
      47      -4.09268174     -12.28173910      -0.01179086       0.00052700      -0.00203800       0.00314700 
      47      -8.18139762     -10.23955558      -2.06359170       0.00018700      -0.00254300       0.00310100 
      47      -2.05035863      -8.18730193      -6.15304892       0.00112600      -0.00188600       0.00291800 
      47      -2.04598082      -8.18490714      -2.05582464       0.00061000      -0.00257600       0.00307200 
      47      -4.10738092     -10.25285133       2.03844617      -0.00139300       0.00076100      -0.00007100 
      47      -6.14939589      -4.11383586      -2.05738845      -0.00168100      -0.00926400      -0.01378800 
      47      -4.11175873     -10.25524612      -2.05877810      -0.00083700       0.00244000      -0.00229700 
      47      -2.06068000      -6.15601938      -0.00558761      -0.00519500      -0.00066800      -0.00234200 
      47      -8.19609681      -8.21066782      -0.01335467      -0.00130400       0.00158900      -0.00294400 
      47      -2.06505781      -6.15841417      -4.10281188      -0.00057500       0.00217100      -0.00274400 
      47      -4.11163004      -8.18920654      -4.10648197       0.00658700      -0.00876200       0.00084200 
      47      -4.10725224      -8.18681175      -0.00925769      -0.00285300       0.00072900      -0.00065300 
      47      -2.06961508     -14.32822201      -0.01064735      -0.00334900       0.00012400      -0.00032600 
      47      -6.15833097     -12.28603849      -2.06244818      -0.00294700       0.00025300       0.00004500 
      47      -2.06055131      -4.08997980      -2.05329148      -0.00510300       0.00148300      -0.00225800 
      47      -0.02291416     -10.23139005      -2.05468113       0.00264000       0.00164600      -0.00577400 
30
Lattice="2.0332593467983022 -6.14380504807326 -4.0986139235727475 -4.093401843299395 -8.193663904070219 4.088067565021765 -6.13979461473078 -2.057043228134277 -4.104991326858949" Properties=Z:I:1:pos:R:3:vasp_force:R:3 uuid=9a44fef7-adb8-44bf-9e35-9b73ee0ebe73 vasp_virial="0.11051685777880338 -0.4736569828547662 -0.4251565017904808 -0.4736569828547662 -0.2352401809713375 -0.09793885222597283 -0.4251565017904808 -0.09793885222597283 0.4634108547358875" vasp_energy=-97.8453414 pbc="T T T"
      46      -4.10217185      -6.15172334      -6.15380234      -0.00563600      -0.00113600       0.00592100 
      46      -4.09779405      -6.14932855      -2.05657806       0.00327000      -0.00094800       0.00169200 
      46      -2.06015689     -12.29073880      -2.05796772       0.00061600      -0.00032400       0.00010100 
      46      -6.14887278     -10.24855529      -4.10976855       0.00025100       0.00002500       0.00017700 
      46      -6.14449497     -10.24616050      -0.01254428       0.00090400      -0.00042500       0.00004600 
      46      -0.01345597      -8.19390685      -4.10200150      -0.00761000       0.00730500      -0.00062500 
      47      -2.04615216     -10.25097301      -0.00799274       0.00277800      -0.00057500       0.00036900 
      47      -4.08816712      -4.11195754      -4.10382736       0.00807500       0.00384200      -0.00116500 
      47      -4.08378931      -4.10956275      -0.00660309       0.00340000      -0.00051000      -0.00010600 
      47       0.00054876      -6.15414106      -2.05202652       0.00311900       0.00880900       0.00980700 
      47      -6.13486804      -8.20878950      -2.05979357       0.00338800       0.00146300      -0.00294400 
      47      -6.13049024      -8.20639470       2.03743070       0.00343600      -0.00039900      -0.00033100 
      47      -6.13735101      -6.13470324      -4.10227497       0.01527200      -0.04746200      -0.02687300 
      47      -4.09705955     -12.28413389      -4.10901513       0.00105200      -0.00160700       0.00341600 
      47      -4.09268174     -12.28173910      -0.01179086       0.00051700      -0.00232000       0.00360000 
      47      -8.18139762     -10.23955558      -2.06359170       0.00046000      -0.00237000       0.00276600 
      47      -2.05035863      -8.18730193      -6.15304892       0.00080700      -0.00100500       0.00331500 
      47      -2.04598082      -8.18490714      -2.05582464       0.00043400      -0.00178600       0.00367400 
      47      -4.10738092     -10.25285133       2.03844617      -0.00087300       0.00377300      -0.00585000 
      47      -6.14939589      -4.11383586      -2.05738845      -0.00145500       0.01284000       0.00889500 
      47      -4.11175873     -10.25524612      -2.05877810      -0.00103900       0.00267400      -0.00274600 
      47      -2.06068000      -6.15601938      -0.00558761       0.00285300       0.00519900      -0.00355400 
      47      -8.19609681      -8.21066782      -0.01335467      -0.00185700       0.00151000      -0.00246600 
      47      -2.06505781      -6.15841417      -4.10281188      -0.00131000       0.00295000      -0.00229800 
      47      -4.11163004      -8.18920654      -4.10648197      -0.01210600       0.00886300      -0.00063700 
      47      -4.10725224      -8.18681175      -0.00925769      -0.00265400       0.00065300      -0.00066500 
      47      -2.06961508     -14.32822201      -0.01064735      -0.00331100       0.00124200      -0.00008300 
      47      -6.15833097     -12.28603849      -2.06244818      -0.00291400       0.00013800       0.00010400 
      47      -2.06055131      -4.08997980      -2.05329148      -0.00040700      -0.00008700       0.00095400 
      47      -0.02291416     -10.23139005      -2.05468113      -0.00946000      -0.00033200       0.00550600 
30
Lattice="2.0332593467983022 -6.14380504807326 -4.0986139235727475 -4.093401843299395 -8.193663904070219 4.088067565021765 -6.13979461473078 -2.057043228134277 -4.104991326858949" Properties=Z:I:1:pos:R:3:vasp_force:R:3 uuid=0df25b54-3dbd-4892-bb8a-236c1aa81e6c vasp_virial="0.10708006872325468 -0.480524137061087 -0.42542309383871507 -0.480524137061087 -0.24488246204120406 -0.09892170965681196 -0.42542309383871507 -0.09892170965681196 0.45431781752443107" vasp_energy=-97.84536984 pbc="T T T"
      46      -4.10217185      -6.15172334      -6.15380234      -0.00591600       0.00039700       0.00614500 
      46      -4.09779405      -6.14932855      -2.05657806       0.00077300       0.00027600      -0.00032300 
      46      -2.06015689     -12.29073880      -2.05796772       0.00029500      -0.00037600       0.00000900 
      46      -6.14887278     -10.24855529      -4.10976855       0.00015800      -0.00060800      -0.00013600 
      46      -6.14449497     -10.24616050      -0.01254428       0.00078800      -0.00028400       0.00018600 
      46      -0.01345597      -8.19390685      -4.10200150       0.00396200      -0.00292600      -0.00033500 
      47      -2.04615216     -10.25097301      -0.00799274       0.00282000      -0.00059200       0.00046500 
      47      -4.08816712      -4.11195754      -4.10382736      -0.00707400      -0.00972300      -0.00094900 
      47      -4.08378931      -4.10956275      -0.00660309       0.00321800      -0.00036100      -0.00034000 
      47       0.00054876      -6.15414106      -2.05202652       0.00328200      -0.00302300      -0.00324200 
      47      -6.13486804      -8.20878950      -2.05979357       0.00343800      -0.00884800       0.00867700 
      47      -6.13049024      -8.20639470       2.03743070       0.00354700      -0.00063800      -0.00012500 
      47      -6.13877779      -6.15089264      -4.10354971       0.02207300       0.04338500      -0.01982600 
      47      -4.09705955     -12.28413389      -4.10901513       0.00105900      -0.00131200       0.00334600 
      47      -4.09268174     -12.28173910      -0.01179086       0.00063200      -0.00204400       0.00362200 
      47      -8.18139762     -10.23955558      -2.06359170      -0.00001600      -0.00306300       0.00330400 
      47      -2.05035863      -8.18730193      -6.15304892       0.00084800      -0.00165400       0.00305700 
      47      -2.04598082      -8.18490714      -2.05582464       0.00044600      -0.00242000       0.00328800 
      47      -4.10738092     -10.25285133       2.03844617      -0.00049400      -0.00737100       0.00720500 
      47      -6.14939589      -4.11383586      -2.05738845      -0.00085700      -0.00102400      -0.00679600 
      47      -4.11175873     -10.25524612      -2.05877810      -0.00077300       0.00234500      -0.00239800 
      47      -2.06068000      -6.15601938      -0.00558761      -0.00943000      -0.00561000      -0.00344300 
      47      -8.19609681      -8.21066782      -0.01335467      -0.00186100       0.00143100      -0.00222200 
      47      -2.06505781      -6.15841417      -4.10281188      -0.00103600       0.00257000      -0.00273800 
      47      -4.11163004      -8.18920654      -4.10648197       0.00124300      -0.00267900      -0.00039300 
      47      -4.10725224      -8.18681175      -0.00925769      -0.00282400       0.00058900      -0.00061500 
      47      -2.06961508     -14.32822201      -0.01064735      -0.00331800       0.00026100      -0.00027500 
      47      -6.15833097     -12.28603849      -2.06244818      -0.00317800       0.00013900       0.00004600 
      47      -2.06055131      -4.08997980      -2.05329148      -0.00244400       0.00150700      -0.00103600 
      47      -0.02291416     -10.23139005      -2.05468113      -0.00936200       0.00165400       0.00584100 
30
Lattice="2.0332593467983022 -6.14380504807326 -4.0986139235727475 -4.093401843299395 -8.193663904070219 4.088067565021765 -6.13979461473078 -2.057043228134277 -4.104991326858949" Properties=Z:I:1:pos:R:3:vasp_force:R:3 uuid=ac69c1c5-a5b7-4fa9-b4f8-ac668601268b vasp_virial="0.11506498236072578 -0.4720092512795359 -0.4263128046502917 -0.4720092512795359 -0.23134408272425286 -0.10320324219050021 -0.4263128046502917 -0.10320324219050021 0.4655532269789258" vasp_energy=-97.84531395 pbc="T T T"
      46      -4.10217185      -6.15172334      -6.15380234       0.00658300      -0.00123300      -0.00642100 
      46      -4.09779405      -6.14932855      -2.05657806       0.00066500      -0.00070800       0.00047200 
      46      -2.06015689     -12.29073880      -2.05796772       0.00088400      -0.00024300      -0.00013100 
      46      -6.14887278     -10.24855529      -4.10976855       0.00033300      -0.00016600       0.00003700 
      46      -6.14449497     -10.24616050      -0.01254428       0.00067600      -0.00015100      -0.00000800 
      46      -0.01345597      -8.19390685      -4.10200150      -0.00282600       0.00230400       0.00022600 
      47      -2.04615216     -10.25097301      -0.00799274       0.00289500      -0.00043900       0.00011100 
      47      -4.08816712      -4.11195754      -4.10382736       0.01358500       0.01008100       0.00010800 
      47      -4.08378931      -4.10956275      -0.00660309       0.00366600      -0.00065000      -0.00001600 
      47       0.00054876      -6.15414106      -2.05202652       0.00245100       0.00199100       0.00377900 
      47      -6.13486804      -8.20878950      -2.05979357       0.00267800       0.00845400      -0.00916700 
      47      -6.13049024      -8.20639470       2.03743070       0.00333200      -0.00037400      -0.00022800 
      47      -6.13061561      -6.13455461      -4.11170125      -0.02146100      -0.04808000       0.02571100 
      47      -4.09705955     -12.28413389      -4.10901513       0.00086000      -0.00157900       0.00286600 
      47      -4.09268174     -12.28173910      -0.01179086       0.00039900      -0.00231500       0.00310300 
      47      -8.18139762     -10.23955558      -2.06359170       0.00065000      -0.00184900       0.00254200 
      47      -2.05035863      -8.18730193      -6.15304892       0.00107300      -0.00123700       0.00315900 
      47      -2.04598082      -8.18490714      -2.05582464       0.00058400      -0.00193800       0.00343500 
      47      -4.10738092     -10.25285133       2.03844617      -0.00184200       0.01232300      -0.01358200 
      47      -6.14939589      -4.11383586      -2.05738845      -0.00233800       0.00411600       0.00140400 
      47      -4.11175873     -10.25524612      -2.05877810      -0.00111400       0.00277300      -0.00266300 
      47      -2.06068000      -6.15601938      -0.00558761       0.00677400       0.00983800      -0.00253600 