30
Lattice="2.0655992168465427 -6.177773885569496 -0.0042992269740028 2.066134629989444 2.0684537919192074 12.187861643797982 -6.197454564793011 -2.059492750159508 -0.0015837529951416" Properties=Z:I:1:pos:R:3:vasp_force:R:3 uuid=bdea8871-416f-4722-a403-7da1ab695470 vasp_virial="0.021222889360784484 0.195348299951005 0.03163857480862185 0.195348299951005 0.24049911534060503 -0.13550098151571455 0.03163857480862185 -0.13550098151571455 -0.4065223586859095" vasp_energy=-94.78885078 pbc="T T T"
      46      -4.12857738      -6.18593188       2.02654851      -0.01941200       0.05858500       0.00012500 
      46      -2.06588644      -4.11709610       2.02804846      -0.00251400      -0.00330200      -0.00003800 
      46      -0.00002445      -2.05774422       2.02954180       0.00679600      -0.00806400      -0.00005600 
      46      -4.13161704      -2.05788510       2.02945140       0.00686900      -0.00871500       0.00000500 
      46      -0.00015584      -6.17630710       2.02664552      -0.00254400      -0.00320400      -0.00020900 
      47       0.00129009       0.00220311       3.97583244      -0.00359200      -0.00935500       0.00861900 
      47      -2.06470327      -6.17571164       3.97144281      -0.00000500       0.00158100       0.00082500 
      47       0.00115871      -4.11635977       3.97293615       0.00002300       0.00151100      -0.00639200 
      47      -4.13043387      -4.11650064       3.97284575      -0.00280400      -0.00911000      -0.01218800 
      47      -2.06457189      -2.05714876       3.97433909      -0.00383200       0.00052800      -0.00208100 
      47       2.06646418      -4.11446535       6.03984993      -0.00125200      -0.00006100       0.00589200 
      47      -2.06512840      -4.11460622       6.03975953      -0.00111200      -0.00064700       0.00595000 
      47       0.00073358      -2.05525435       6.04125287      -0.00051300      -0.00082100       0.00567100 
      47      -4.13085900      -2.05539522       6.04116247      -0.00161500       0.00008900       0.00684100 
      47       0.00060220      -6.17381723       6.03835659      -0.00129600      -0.00062000       0.00584800 
      47       0.00002948      -4.11251653       8.12141364      -0.00037900      -0.00032500       0.00034700 
      47       2.06589146      -2.05316465       8.12290699       0.00027600       0.00031800      -0.00010800 
      47      -2.06570112      -2.05330552       8.12281658       0.00004700      -0.00002500       0.00001900 
      47       0.00016086       0.00604635       8.12430993      -0.00020600      -0.00040300       0.00007700 
      47      -2.06583250      -6.17186840       8.11992029       0.00045800       0.00039300      -0.00025300 
      47       2.06522464      -4.11041472      10.20308362       0.00116100       0.00027200      -0.00684500 
      47      -2.06636795      -4.11055559      10.20299321       0.00116700       0.00088400      -0.00646200 
      47      -0.00050596      -2.05120372      10.20448656       0.00157900      -0.00005600      -0.00724200 
      47       2.06535602       0.00814816      10.20597990       0.00055400       0.00077300      -0.00638200 
      47      -2.06623656       0.00800729      10.20588950       0.00110400       0.00063500      -0.00717400 
      47      -0.00116958       0.00086328       0.08615271       0.00262600      -0.01051700      -0.00642200 
      47      -2.06716294      -6.17705147       0.08176308       0.00590300       0.00017700      -0.00023700 
      47      -0.00130096      -4.11769960       0.08325643       0.00614400       0.00038900       0.00569700 
      47      -4.13289354      -4.11784047       0.08316602       0.00362300      -0.01032400       0.01299700 
      47      -2.06703156      -2.05848859       0.08465937       0.00275000      -0.00058700       0.00317600 
30
Lattice="2.0655992168465427 -6.177773885569496 -0.0042992269740028 2.066134629989444 2.0684537919192074 12.187861643797982 -6.197454564793011 -2.059492750159508 -0.0015837529951416" Properties=Z:I:1:pos:R:3:vasp_force:R:3 uuid=3e3b7c11-8e05-4cf1-8648-9b161e5839ff vasp_virial="0.037388395573085036 0.19614427964040174 0.03335672608939278 0.19614427964040174 0.2557327428921485 -0.13329100538621072 0.03335672608939278 -0.13329100538621072 -0.39061570765715253" vasp_energy=-94.78888683 pbc="T T T"
      46      -4.13174842      -6.17644798       2.02655511      -0.00024000       0.00831100      -0.00697000 
      46      -2.06588644      -4.11709610       2.02804846       0.00039200       0.00045500      -0.00028700 
      46      -0.00002445      -2.05774422       2.02954180       0.00023100      -0.01232000      -0.01050700 
      46      -4.13161704      -2.05788510       2.02945140       0.00838200      -0.00032700      -0.00686700 
      46      -0.00015584      -6.17630710       2.02664552      -0.01143400       0.00065300      -0.01050200 
      47      -0.00035838       0.00055279       3.96610830       0.00594100       0.00994600       0.05467500 
      47      -2.06470327      -6.17571164       3.97144281      -0.00538000      -0.00168700      -0.00095400 
      47       0.00115871      -4.11635977       3.97293615      -0.00272600       0.00068000      -0.00155000 
      47      -4.13043387      -4.11650064       3.97284575      -0.00241300       0.00045300      -0.00084000 
      47      -2.06457189      -2.05714876       3.97433909      -0.00646000      -0.00155800      -0.00065100 
      47       2.06646418      -4.11446535       6.03984993      -0.00101700      -0.00794800      -0.00138900 
      47      -2.06512840      -4.11460622       6.03975953      -0.00120100      -0.00066800       0.00584300 
      47       0.00073358      -2.05525435       6.04125287      -0.00030000       0.00496200       0.00077800 
      47      -4.13085900      -2.05539522       6.04116247      -0.00922300       0.00025300      -0.00058300 
      47       0.00060220      -6.17381723       6.03835659       0.00419600      -0.00045800       0.00076600 
      47       0.00002948      -4.11251653       8.12141364      -0.00025800      -0.00059100       0.00003200 
      47       2.06589146      -2.05316465       8.12290699       0.00012600       0.00054000      -0.00025400 
      47      -2.06570112      -2.05330552       8.12281658       0.00036200       0.00020500      -0.00009500 
      47       0.00016086       0.00604635       8.12430993      -0.00015800      -0.00028000      -0.00055000 
      47      -2.06583250      -6.17186840       8.11992029       0.00017900       0.00023100      -0.00034700 
      47       2.06522464      -4.11041472      10.20308362       0.00118200       0.00034200      -0.00654200 
      47      -2.06636795      -4.11055559      10.20299321       0.00120200       0.00068400      -0.00652700 
      47      -0.00050596      -2.05120372      10.20448656       0.00160400      -0.00008900      -0.00728500 
      47       2.06535602       0.00814816      10.20597990       0.00061700       0.00075000      -0.00656400 
      47      -2.06623656       0.00800729      10.20588950       0.00106000       0.00075400      -0.00689700 
      47      -0.00116958       0.00086328       0.08615271       0.00294200      -0.00073800       0.00361700 
      47      -2.06716294      -6.17705147       0.08176308       0.00266100      -0.00054500       0.00281800 
      47      -0.00130096      -4.11769960       0.08325643       0.00303000      -0.00076100       0.00205200 
      47      -4.13289354      -4.11784047       0.08316602       0.00404900      -0.00065700       0.00276600 
      47      -2.06703156      -2.05848859       0.08465937       0.00265300      -0.00059200       0.00281200 
30
Lattice="2.0655992168465427 -6.177773885569496 -0.0042992269740028 2.066134629989444 2.0684537919192074 12.187861643797982 -6.197454564793011 -2.059492750159508 -0.0015837529951416" Properties=Z:I:1:pos:R:3:vasp_force:R:3 uuid=d97de2f9-d1ae-4b8f-b671-357c5fbcef26 vasp_virial="0.019517680839190733 0.19631900688929368 0.042895539602976054 0.19631900688929368 0.23870654319456533 -0.131728167215566 0.042895539602976054 -0.131728167215566 -0.4083699375584523" vasp_energy=-94.78890447 pbc="T T T"
      46      -4.13174842      -6.17644798       2.02655511       0.00055900      -0.00374200       0.00336100 
      46      -2.06588644      -4.11709610       2.02804846       0.00024300       0.00054600      -0.00009500 
      46      -0.00002445      -2.05774422       2.02954180       0.00100700      -0.00323700      -0.00301700 
      46      -4.13161704      -2.05788510       2.02945140      -0.00958700      -0.00025000       0.00943600 
      46      -0.00015584      -6.17630710       2.02664552      -0.00900800       0.00070700      -0.00983500 
      47      -0.00819964      -0.00095045       3.97583001       0.05016700       0.01851800      -0.00226300 
      47      -2.06470327      -6.17571164       3.97144281      -0.01187800      -0.00824000      -0.00238300 
      47       0.00115871      -4.11635977       3.97293615      -0.00659800       0.00561800      -0.00305200 
      47      -4.13043387      -4.11650064       3.97284575      -0.00611700       0.00523200      -0.00226600 
      47      -2.06457189      -2.05714876       3.97433909      -0.01334000      -0.00865200      -0.00215200 
      47       2.06646418      -4.11446535       6.03984993      -0.00014600      -0.00224400       0.00365200 
      47      -2.06512840      -4.11460622       6.03975953      -0.00172100      -0.00085300       0.00610700 
      47       0.00073358      -2.05525435       6.04125287       0.00052600      -0.00272800       0.00822600 
      47      -4.13085900      -2.05539522       6.04116247      -0.00782000       0.00031900       0.00008800 
      47       0.00060220      -6.17381723       6.03835659      -0.00758400      -0.00034200       0.01243800 
      47       0.00002948      -4.11251653       8.12141364      -0.00041200      -0.00034200       0.00033600 
      47       2.06589146      -2.05316465       8.12290699       0.00023000       0.00033400      -0.00014600 
      47      -2.06570112      -2.05330552       8.12281658       0.00009200       0.00004300       0.00032400 
      47       0.00016086       0.00604635       8.12430993      -0.00000700      -0.00021400       0.00008600 
      47      -2.06583250      -6.17186840       8.11992029       0.00047200       0.00032500      -0.00044400 
      47       2.06522464      -4.11041472      10.20308362       0.00118200       0.00036600      -0.00663200 
      47      -2.06636795      -4.11055559      10.20299321       0.00124800       0.00066700      -0.00645800 
      47      -0.00050596      -2.05120372      10.20448656       0.00167600      -0.00004000      -0.00739900 
      47       2.06535602       0.00814816      10.20597990       0.00055000       0.00081100      -0.00654700 
      47      -2.06623656       0.00800729      10.20588950       0.00105400       0.00068700      -0.00696300 
      47      -0.00116958       0.00086328       0.08615271       0.00325200      -0.00064000       0.00379800 
      47      -2.06716294      -6.17705147       0.08176308       0.00256000      -0.00069400       0.00305900 
      47      -0.00130096      -4.11769960       0.08325643       0.00324100      -0.00059900       0.00223900 
      47      -4.13289354      -4.11784047       0.08316602       0.00397200      -0.00086500       0.00320400 
      47      -2.06703156      -2.05848859       0.08465937       0.00218900      -0.00049000       0.00329900 
30
Lattice="2.0655992168465427 -6.177773885569496 -0.0042992269740028 2.066134629989444 2.0684537919192074 12.187861643797982 -6.197454564793011 -2.059492750159508 -0.0015837529951416" Properties=Z:I:1:pos:R:3:vasp_force:R:3 uuid=6c54a42a-50e9-421b-81e9-e9894c839ef5 vasp_virial="0.02050133053665658 0.19654874086468863 0.019533859288162213 0.19654874086468863 0.23904305493317207 -0.13908936149758835 0.019533859288162213 -0.13908936149758835 -0.4083149308319493" vasp_energy=-94.78885304 pbc="T T T"
      46      -4.13174842      -6.17644798       2.02655511      -0.00143200       0.00259400      -0.00287200 
      46      -2.06588644      -4.11709610       2.02804846       0.00064500       0.00028700      -0.00001200 
      46      -0.00002445      -2.05774422       2.02954180      -0.00092700       0.00301400       0.00307200 
      46      -4.13161704      -2.05788510       2.02945140       0.00923300      -0.00059600      -0.00961200 
      46      -0.00015584      -6.17630710       2.02664552       0.00983400       0.00045700       0.00902800 
      47       0.01077983       0.00535667       3.97583486      -0.05648600      -0.01809800      -0.00215800 
      47      -2.06470327      -6.17571164       3.97144281       0.00631100       0.00995100      -0.00245200 
      47       0.00115871      -4.11635977       3.97293615       0.00052400      -0.00414700      -0.00296600 
      47      -4.13043387      -4.11650064       3.97284575       0.00101600      -0.00456700      -0.00235300 
      47      -2.06457189      -2.05714876       3.97433909       0.00484400       0.00955600      -0.00207200 
      47       2.06646418      -4.11446535       6.03984993      -0.00222700       0.00167300       0.00824300 
      47      -2.06512840      -4.11460622       6.03975953      -0.00047700      -0.00025300       0.00615200 
      47       0.00073358      -2.05525435       6.04125287      -0.00154700       0.00126100       0.00359800 
      47      -4.13085900      -2.05539522       6.04116247       0.00470000      -0.00007600       0.01335800 
      47       0.00060220      -6.17381723       6.03835659       0.00489400      -0.00080100      -0.00079700 
      47       0.00002948      -4.11251653       8.12141364      -0.00033800      -0.00035400       0.00015200 
      47       2.06589146      -2.05316465       8.12290699       0.00029600       0.00028600       0.00012200 
      47      -2.06570112      -2.05330552       8.12281658       0.00003400       0.00015600      -0.00027000 
      47       0.00016086       0.00604635       8.12430993      -0.00037700      -0.00034100       0.00007600 
      47      -2.06583250      -6.17186840       8.11992029       0.00041700       0.00044600       0.00012700 
      47       2.06522464      -4.11041472      10.20308362       0.00116100       0.00036600      -0.00668500 
      47      -2.06636795      -4.11055559      10.20299321       0.00124200       0.00065400      -0.00636600 
      47      -0.00050596      -2.05120372      10.20448656       0.00155700       0.00000000      -0.00737100 
      47       2.06535602       0.00814816      10.20597990       0.00050500       0.00082700      -0.00668500 
      47      -2.06623656       0.00800729      10.20588950       0.00113000       0.00075200      -0.00689600 
      47      -0.00116958       0.00086328       0.08615271       0.00252700      -0.00084700       0.00385600 
      47      -2.06716294      -6.17705147       0.08176308       0.00315700      -0.00067900       0.00325700 
      47      -0.00130096      -4.11769960       0.08325643       0.00313700      -0.00043000       0.00270200 
      47      -4.13289354      -4.11784047       0.08316602       0.00380800      -0.00067800       0.00282400 
      47      -2.06703156      -2.05848859       0.08465937       0.00283900      -0.00041600       0.00299700 
30
Lattice="2.0655992168465427 -6.177773885569496 -0.0042992269740028 2.066134629989444 2.0684537919192074 12.187861643797982 -6.197454564793011 -2.059492750159508 -0.0015837529951416" Properties=Z:I:1:pos:R:3:vasp_force:R:3 uuid=568d3346-715b-4af3-bd43-42a0aba25c85 vasp_virial="0.021957390944089574 0.19565892617125735 0.030784352702927828 0.19565892617125735 0.24000405480207784 -0.1341969985286135 0.030784352702927828 -0.1341969985286135 -0.40762896459555864" vasp_energy=-94.78891894 pbc="T T T"
      46      -4.13174842      -6.17644798       2.02655511      -0.00055700      -0.00033300       0.00020400 
      46      -2.06588644      -4.11709610       2.02804846       0.00043000       0.00041800      -0.00004600 
      46      -0.00002445      -2.05774422       2.02954180       0.00005600      -0.00013500       0.00015600 
      46      -4.13161704      -2.05788510       2.02945140      -0.00026700      -0.00045200      -0.00002100 
      46      -0.00015584      -6.17630710       2.02664552       0.00051700       0.00049900      -0.00025800 
      47       0.00129009       0.00220311       3.97583244      -0.00350500      -0.00593600      -0.00843600 
      47      -2.06470327      -6.17571164       3.97144281      -0.00097600       0.00166400      -0.00459900 
      47       0.00115871      -4.11635977       3.97293615      -0.00106400       0.00169100      -0.00086500 
      47      -4.13043387      -4.11650064       3.97284575      -0.00277000      -0.00592500       0.00426700 
      47      -2.06457189      -2.05714876       3.97433909      -0.00393600      -0.00000500      -0.00209200 
      47       2.06963522      -4.12394926       6.03984333      -0.01607200       0.04555600       0.00541800 
      47      -2.06512840      -4.11460622       6.03975953      -0.00579100      -0.00396700       0.00616300 
      47       0.00073358      -2.05525435       6.04125287       0.00810700      -0.00927800       0.00591200 
      47      -4.13085900      -2.05539522       6.04116247       0.00741300      -0.00876500       0.00656400 
      47       0.00060220      -6.17381723       6.03835659      -0.00606200      -0.00403900       0.00564000 
      47       0.00002948      -4.11251653       8.12141364       0.00150900       0.00069300      -0.00185900 
      47       2.06589146      -2.05316465       8.12290699      -0.00000200      -0.00556900      -0.00619000 
      47      -2.06570112      -2.05330552       8.12281658       0.00024700      -0.00060900       0.00002200 
      47       0.00016086       0.00604635       8.12430993      -0.00048300      -0.00635600       0.00659800 
      47      -2.06583250      -6.17186840       8.11992029       0.00231600       0.00148300       0.00192700 
      47       2.06522464      -4.11041472      10.20308362       0.00110700       0.00052400      -0.00668600 
      47      -2.06636795      -4.11055559      10.20299321       0.00119800       0.00060700      -0.00646300 
      47      -0.00050596      -2.05120372      10.20448656       0.00169100      -0.00005800      -0.00763800 
      47       2.06535602       0.00814816      10.20597990       0.00056000       0.00079700      -0.00636700 
      47      -2.06623656       0.00800729      10.20588950       0.00103700       0.00069800      -0.00689900 
      47      -0.00116958       0.00086328       0.08615271       0.00288800      -0.00077500       0.00373800 
      47      -2.06716294      -6.17705147       0.08176308       0.00284900      -0.00070300       0.00321300 
      47      -0.00130096      -4.11769960       0.08325643       0.00318700      -0.00050700       0.00244600 
      47      -4.13289354      -4.11784047       0.08316602       0.00390500      -0.00078300       0.00305500 
      47      -2.06703156      -2.05848859       0.08465937       0.00247100      -0.00043400       0.00309500 
30
Lattice="2.0655992168465427 -6.177773885569496 -0.0042992269740028 2.066134629989444 2.0684537919192074 12.187861643797982 -6.197454564793011 -2.059492750159508 -0.0015837529951416" Properties=Z:I:1:pos:R:3:vasp_force:R:3 uuid=a0741659-1975-4ee1-9613-61ec8f6ed024 vasp_virial="0.02235538078878793 0.1956362763426973 0.03142501928219834 0.1956362763426973 0.24106212536481245 -0.1368729139884959 0.03142501928219834 -0.1368729139884959 -0.40626673919216016" vasp_energy=-94.78891776 pbc="T T T"
      46      -4.13174842      -6.17644798       2.02655511      -0.00029300      -0.00082500       0.00026100 
      46      -2.06588644      -4.11709610       2.02804846       0.00045600       0.00039000      -0.00010000 
      46      -0.00002445      -2.05774422       2.02954180      -0.00000700      -0.00013000      -0.00013500 
      46      -4.13161704      -2.05788510       2.02945140      -0.00036200      -0.00038800       0.00016400 
      46      -0.00015584      -6.17630710       2.02664552       0.00058000       0.00061600      -0.00023100 
      47       0.00129009       0.00220311       3.97583244      -0.00311000       0.00668900       0.00470100 
      47      -2.06470327      -6.17571164       3.97144281      -0.00495400      -0.00036700      -0.00026700 
      47       0.00115871      -4.11635977       3.97293615      -0.00496400      -0.00038100      -0.00519200 
      47      -4.13043387      -4.11650064       3.97284575      -0.00235400       0.00685100      -0.00915700 
      47      -2.06457189      -2.05714876       3.97433909      -0.00420300       0.00130200      -0.00216400 
      47       2.06329314      -4.10498145       6.03985653       0.01406600      -0.04596300       0.00628300 
      47      -2.06512840      -4.11460622       6.03975953       0.00370200       0.00288000       0.00606300 
      47       0.00073358      -2.05525435       6.04125287      -0.00957500       0.00814400       0.00587200 
      47      -4.13085900      -2.05539522       6.04116247      -0.01028500       0.00865100       0.00660700 
      47       0.00060220      -6.17381723       6.03835659       0.00342800       0.00280600       0.00572900 
      47       0.00002948      -4.11251653       8.12141364      -0.00226100      -0.00143400       0.00231600 
      47       2.06589146      -2.05316465       8.12290699       0.00054800       0.00632600       0.00635700 
      47      -2.06570112      -2.05330552       8.12281658      -0.00012600       0.00078600      -0.00000100 
      47       0.00016086       0.00604635       8.12430993       0.00007300       0.00561200      -0.00623300 
      47      -2.06583250      -6.17186840       8.11992029      -0.00142800      -0.00071300      -0.00227300 
      47       2.06522464      -4.11041472      10.20308362       0.00123400       0.00018200      -0.00667200 
      47      -2.06636795      -4.11055559      10.20299321       0.00128800       0.00069200      -0.00639200 
      47      -0.00050596      -2.05120372      10.20448656       0.00153900      -0.00000800      -0.00716600 
      47       2.06535602       0.00814816      10.20597990       0.00049400       0.00081800      -0.00689600 
      47      -2.06623656       0.00800729      10.20588950       0.00114500       0.00071800      -0.00699300 
      47      -0.00116958       0.00086328       0.08615271       0.00288700      -0.00073700       0.00387700 
      47      -2.06716294      -6.17705147       0.08176308       0.00286900      -0.00069200       0.00307300 
      47      -0.00130096      -4.11769960       0.08325643       0.00318500      -0.00054500       0.00245900 
      47      -4.13289354      -4.11784047       0.08316602       0.00387500      -0.00078300       0.00293800 
      47      -2.06703156      -2.05848859       0.08465937       0.00255400      -0.00049700       0.00317100 
30
Lattice="2.0655992168465427 -6.177773885569496 -0.0042992269740028 2.066134629989444 2.0684537919192074 12.187861643797982 -6.197454564793011 -2.059492750159508 -0.0015837529951416" Properties=Z:I:1:pos:R:3:vasp_force:R:3 uuid=2354721f-e347-4d40-b9ff-dd16f39c95e5 vasp_virial="0.020261889491878706 0.1951476871837587 0.030923487364082534 0.1951476871837587 0.23722459726877798 -0.13597339222568172 0.030923487364082534 -0.13597339222568172 -0.4061049547024454" vasp_energy=-94.78898424 pbc="T T T"
      46      -4.13174842      -6.17644798       2.02655511      -0.00046500      -0.00060100       0.00038000 
      46      -2.06588644      -4.11709610       2.02804846       0.00023800       0.00016700      -0.00006100 
      46      -0.00002445      -2.05774422       2.02954180       0.00031700      -0.00030700       0.00009800 
      46      -4.13161704      -2.05788510       2.02945140      -0.00057600      -0.00028200       0.00013500 
      46      -0.00015584      -6.17630710       2.02664552       0.00069800       0.00077600      -0.00013800 
      47       0.00129009       0.00220311       3.97583244      -0.00344400       0.00827100       0.00555500 
      47      -2.06470327      -6.17571164       3.97144281      -0.00858600       0.00051300       0.00252700 
      47       0.00115871      -4.11635977       3.97293615       0.00471500       0.00048800       0.00414200 
      47      -4.13043387      -4.11650064       3.97284575      -0.00281700      -0.00546700       0.00283200 
      47      -2.06457189      -2.05714876       3.97433909      -0.00392700       0.00072500      -0.00184400 
      47       2.06811266      -4.11281503       6.04957408      -0.00877400      -0.00762300      -0.03960800 
      47      -2.06512840      -4.11460622       6.03975953       0.00123400       0.00168200       0.00477800 
      47       0.00073358      -2.05525435       6.04125287      -0.00077400      -0.00084500       0.00454100 
      47      -4.13085900      -2.05539522       6.04116247      -0.00183100       0.00003200       0.00521900 
      47       0.00060220      -6.17381723       6.03835659       0.00105600       0.00154800       0.00439100 
      47       0.00002948      -4.11251653       8.12141364      -0.00581300      -0.00051800       0.00498900 
      47       2.06589146      -2.05316465       8.12290699       0.00009100       0.00793700       0.00716000 
      47      -2.06570112      -2.05330552       8.12281658       0.00019900       0.00018500       0.00039100 
      47       0.00016086       0.00604635       8.12430993      -0.00045800      -0.00596000       0.00501400 
      47      -2.06583250      -6.17186840       8.11992029       0.00802800       0.00016500       0.00685400 
      47       2.06522464      -4.11041472      10.20308362       0.00116000       0.00033700      -0.00596500 
      47      -2.06636795      -4.11055559      10.20299321       0.00146500       0.00077300      -0.00623900 
      47      -0.00050596      -2.05120372      10.20448656       0.00148700       0.00015600      -0.00720800 
      47       2.06535602       0.00814816      10.20597990       0.00066100       0.00057600      -0.00644800 
      47      -2.06623656       0.00800729      10.20588950       0.00082500       0.00058000      -0.00684300 
      47      -0.00116958       0.00086328       0.08615271       0.00279300      -0.00073100       0.00375900 
      47      -2.06716294      -6.17705147       0.08176308       0.00291800      -0.00078000       0.00310700 
      47      -0.00130096      -4.11769960       0.08325643       0.00314000      -0.00051300       0.00233700 
      47      -4.13289354      -4.11784047       0.08316602       0.00393400      -0.00082000       0.00310300 
      47      -2.06703156      -2.05848859       0.08465937       0.00250600      -0.00046500       0.00304000 
30
Lattice="2.0655992168465427 -6.177773885569496 -0.0042992269740028 2.066134629989444 2.0684537919192074 12.187861643797982 -6.197454564793011 -2.059492750159508 -0.0015837529951416" Properties=Z:I:1:pos:R:3:vasp_force:R:3 uuid=d748d74e-965c-4f16-b968-44f7b1f47dff vasp_virial="0.02302516857620711 0.19687230984411822 0.031693581535124866 0.19687230984411822 0.24189369764194643 -0.1352032980546394 0.031693581535124866 -0.1352032980546394 -0.4085090722196069" vasp_energy=-94.78887282 pbc="T T T"
      46      -4.13174842      -6.17644798       2.02655511      -0.00038900      -0.00057000       0.00008500 
      46      -2.06588644      -4.11709610       2.02804846       0.00063100       0.00063200      -0.00008800 
      46      -0.00002445      -2.05774422       2.02954180      -0.00027600       0.00003100      -0.00007900 
      46      -4.13161704      -2.05788510       2.02945140      -0.00006300      -0.00056800       0.00000600 
      46      -0.00015584      -6.17630710       2.02664552       0.00039200       0.00032400      -0.00035700 
      47       0.00129009       0.00220311       3.97583244      -0.00314300      -0.00770000      -0.00933000 
      47      -2.06470327      -6.17571164       3.97144281       0.00282300       0.00075400      -0.00749800 
      47       0.00115871      -4.11635977       3.97293615      -0.01109100       0.00084800      -0.01046500 
      47      -4.13043387      -4.11650064       3.97284575      -0.00233000       0.00639000      -0.00759400 
      47      -2.06457189      -2.05714876       3.97433909      -0.00422400       0.00056300      -0.00240900 
      47       2.06481571      -4.11611568       6.03012579       0.00704000       0.00755600       0.05145900 
      47      -2.06512840      -4.11460622       6.03975953      -0.00343500      -0.00281900       0.00741800 
      47       0.00073358      -2.05525435       6.04125287      -0.00025800      -0.00067800       0.00723900 
      47      -4.13085900      -2.05539522       6.04116247      -0.00149500       0.00022000       0.00794500 
      47       0.00060220      -6.17381723       6.03835659      -0.00359800      -0.00275400       0.00699500 
      47       0.00002948      -4.11251653       8.12141364       0.00488600      -0.00022000      -0.00443900 
      47       2.06589146      -2.05316465       8.12290699       0.00040900      -0.00702800      -0.00696100 
      47      -2.06570112      -2.05330552       8.12281658      -0.00008600      -0.00002000      -0.00038000 
      47       0.00016086       0.00604635       8.12430993       0.00005100       0.00519600      -0.00477700 
      47      -2.06583250      -6.17186840       8.11992029      -0.00682500       0.00055600      -0.00695000 
      47       2.06522464      -4.11041472      10.20308362       0.00117100       0.00035900      -0.00739300 
      47      -2.06636795      -4.11055559      10.20299321       0.00101200       0.00051400      -0.00662300 