  30
   1   1
     6.490899463845611    -0.630592368605201     0.059130347896250
    -0.652073846145838     6.349952122071336     0.053101350719662
     0.047699868907017     0.036421248673568     6.650423719416183
   1   2
    -0.686248355956396    -0.721135369904257    -0.017016992084534
    -0.713684319873306    -0.692345893296975     0.002539043609842
     0.005986888178036    -0.020004172052854    -0.085384105078582
   1   3
     0.011778233828228    -0.021230540028740     0.021726991029696
    -0.015956968133708     0.019244756196767    -0.028878579740952
    -0.033357987007686     0.026105516257312    -0.069770051357499
   1   4
     0.011740770288090    -0.016273094355120    -0.033411118707599
    -0.020902338120994     0.019234012903439     0.025096692897703
     0.021721551834505    -0.027832516843276    -0.069755333213891
   1   5
    -0.686086290383177    -0.713938370973051     0.005878549250890
    -0.720772012000007    -0.692437854654255    -0.021082587727760
    -0.016832619107713     0.003682295624679    -0.085316022647483
   1   6
    -0.019846156520813    -0.001193027699382    -0.005423713138706
    -0.000039070664796    -0.711824620605873    -0.835380818779938
    -0.004621953895140    -0.835528487378111    -0.774503273884687
   1   7
    -0.047906108600216    -0.032651827702390     0.001568639502920
    -0.031521070654324    -0.049465307715688     0.009145749885979
     0.002132429861614     0.009117050112075     0.031960695910350
   1   8
    -0.734357413042022     0.002513921237397    -0.872267546852751
     0.003636078798346    -0.014824276895752    -0.008377451990615
    -0.871811051176169    -0.008125683236449    -0.807211161567530
   1   9
    -0.033777930723706    -0.021720441610943     0.011052390348809
    -0.020323431814427    -0.733025815772774     0.822569111646399
     0.011811666143050     0.823090288745333    -0.743395881058480
   1  10
    -0.769735708829769    -0.017084408635328     0.855956347061619
    -0.016169331990721    -0.025751690296856     0.005913253067962
     0.857027219976714     0.006037343398979    -0.793465960975408
   1  11
    -0.021322017590983    -0.003672690668629    -0.018625240822626
    -0.005068463906404     0.009383922813798    -0.022420277264371
    -0.018660807061544    -0.017485232325588    -0.026204348138053
   1  12
     0.011085934764558    -0.008111925942897    -0.022414196716986
    -0.003164181789119    -0.018954920814020    -0.017534872771818
    -0.017426585542836    -0.020576664356561    -0.031719566593886
   1  13
    -0.052296665945539     0.005812034449475     0.006365871365295
    -0.015740114515022     0.011593524979301     0.035874896119285
     0.005378576624445     0.030032599575707     0.008125178395225
   1  14
    -1.128382964419048     1.331423234713221    -0.007554993491490
     1.331727297126211    -1.140089715433445    -0.012146453242159
    -0.000201295609252    -0.006623409720056     0.133252044631635
   1  15
     0.005580813199491    -0.017467139805427     0.034268079092644
     0.004253800716305    -0.055252692939539     0.006763619338121
     0.027630817305508     0.005545827130329     0.002051985947669
   1  16
    -0.026316372127935     0.024660797363707    -0.008750136824053
     0.029183145209507    -0.023348130863098    -0.009918179950923
    -0.019347703413012    -0.004106766929197    -0.018239033308036
   1  17
     0.013773792244503     0.002756272669230     0.008053479071763
     0.001371627748036     0.015429007101529     0.008698336895841
    -0.001117723949877    -0.005563812831095     0.002994919575546
   1  18
    -0.025617618832574     0.030011852049226    -0.009798514965824
     0.029918621063205    -0.022515682828024    -0.009441729277554
    -0.007421805156879    -0.021675949076449    -0.019418239832874
   1  19
    -0.021608088576077     0.025223528703884     0.010198782346623
     0.029190602934780    -0.020611728638556    -0.004357635673994
     0.024084751219676     0.005091020918878    -0.015291295620361
   1  20
    -0.022223319167521     0.028267573019978    -0.001822050711212
     0.022627457015427    -0.021064321700574     0.009022501344177
     0.003554159998834     0.020446547571407    -0.015732665151257
   1  21
    -0.732799949464127     0.845001510392841    -0.004883417307952
     0.846825323138716    -0.740718911301024    -0.004349354812339
     0.000276103945732    -0.000433295590718     0.092129355237640
   1  22
    -0.022093963225127     0.005999121530418    -0.001172608789104
    -0.018056886677444     0.030492879553752     0.000018825851081
    -0.007303748181551     0.003700539529012     0.032456858164013
   1  23
     0.001750462304395    -0.005751224767123    -0.025257074135877
    -0.001300659551267     0.002328585427502     0.019158520032230
    -0.008389532668286     0.008410504764322    -0.007334566118310
   1  24
     0.001701019683246    -0.002287030233519     0.020446113747337
    -0.002125286527843     0.004073716280092    -0.024463126738385
     0.008371884164050    -0.007225366754200    -0.005212693398389
   1  25
     0.026999367091822    -0.019514429534222     0.001241442883482
     0.005108540606077    -0.029654732099009     0.003749472491296
    -0.000645385810423    -0.004749234019471     0.029867444018325
   1  26
    -0.835472486748714    -0.013730931945831    -0.925031753751767
    -0.013187954473404     0.088860388566417    -0.008374524020810
    -0.995023873516978    -0.004135148254124    -0.874858103291165
   1  27
    -0.016594612426600    -0.004980999522196    -0.007552484307470
    -0.004794584994202    -0.014067530814841    -0.006090280065982
    -0.018196201404984    -0.014741253301140     0.002554833888512
   1  28
     0.083285625677187    -0.011207982463431    -0.005320887803418
    -0.012920508587709    -0.805924580168491    -0.883718929943535
    -0.002099851670313    -0.951326387884625    -0.834296480755489
   1  29
    -0.854315749196826    -0.024361953326383     0.909761516985592
    -0.011013585989592     0.084393286124072     0.018506856363388
     0.988356299198263     0.018965538687966    -0.877183186320435
   1  30
     0.078404826263422    -0.014764988027081     0.020653271224305
    -0.025030036783565    -0.823107279427896     0.876375668566965
     0.018425751300711     0.953489275063135    -0.831525145130385
   2   1
    -0.686086290383177    -0.713938370973051     0.005878549250890
    -0.720772012000007    -0.692437854654255    -0.021082587727760
    -0.016832619107713     0.003682295624679    -0.085316022647483
   2   2
     6.490899463845609    -0.630592368605199     0.059130347896250
    -0.652073846145837     6.349952122071336     0.053101350719663
     0.047699868907018     0.036421248673569     6.650423719416183
   2   3
    -0.686248355956396    -0.721135369904257    -0.017016992084534
    -0.713684319873306    -0.692345893296975     0.002539043609842
     0.005986888178036    -0.020004172052854    -0.085384105078582
   2   4
     0.011778233828228    -0.021230540028740     0.021726991029696
    -0.015956968133708     0.019244756196767    -0.028878579740952
    -0.033357987007686     0.026105516257312    -0.069770051357499
   2   5
     0.011740770288090    -0.016273094355120    -0.033411118707599
    -0.020902338120994     0.019234012903439     0.025096692897703
     0.021721551834505    -0.027832516843276    -0.069755333213891
   2   6
    -0.769735708829768    -0.017084408635329     0.855956347061619
    -0.016169331990721    -0.025751690296856     0.005913253067962
     0.857027219976714     0.006037343398979    -0.793465960975408
   2   7
    -0.019846156520813    -0.001193027699382    -0.005423713138706
    -0.000039070664796    -0.711824620605873    -0.835380818779938
    -0.004621953895140    -0.835528487378112    -0.774503273884687
   2   8
    -0.047906108600216    -0.032651827702390     0.001568639502920
    -0.031521070654324    -0.049465307715688     0.009145749885979
     0.002132429861614     0.009117050112075     0.031960695910350
   2   9
    -0.734357413042022     0.002513921237397    -0.872267546852751
     0.003636078798346    -0.014824276895752    -0.008377451990616
    -0.871811051176169    -0.008125683236449    -0.807211161567530
   2  10
    -0.033777930723706    -0.021720441610943     0.011052390348808
    -0.020323431814426    -0.733025815772774     0.822569111646399
     0.011811666143050     0.823090288745333    -0.743395881058480
   2  11
     0.005580813199491    -0.017467139805427     0.034268079092644
     0.004253800716305    -0.055252692939539     0.006763619338121
     0.027630817305508     0.005545827130329     0.002051985947669
   2  12
    -0.021322017590983    -0.003672690668629    -0.018625240822626
    -0.005068463906404     0.009383922813798    -0.022420277264371
    -0.018660807061544    -0.017485232325588    -0.026204348138053
   2  13
     0.011085934764558    -0.008111925942897    -0.022414196716986
    -0.003164181789119    -0.018954920814020    -0.017534872771818
    -0.017426585542836    -0.020576664356561    -0.031719566593886
   2  14
    -0.052296665945539     0.005812034449475     0.006365871365295
    -0.015740114515022     0.011593524979301     0.035874896119285
     0.005378576624445     0.030032599575707     0.008125178395225
   2  15
    -1.128382964419047     1.331423234713221    -0.007554993491490
     1.331727297126211    -1.140089715433444    -0.012146453242159
    -0.000201295609252    -0.006623409720056     0.133252044631635
   2  16
    -0.022223319167521     0.028267573019978    -0.001822050711212
     0.022627457015427    -0.021064321700574     0.009022501344177
     0.003554159998834     0.020446547571407    -0.015732665151257
   2  17
    -0.026316372127935     0.024660797363707    -0.008750136824053
     0.029183145209507    -0.023348130863098    -0.009918179950923
    -0.019347703413012    -0.004106766929198    -0.018239033308036
   2  18
     0.013773792244503     0.002756272669230     0.008053479071763
     0.001371627748036     0.015429007101529     0.008698336895841
    -0.001117723949877    -0.005563812831095     0.002994919575546
   2  19
    -0.025617618832574     0.030011852049226    -0.009798514965824
     0.029918621063205    -0.022515682828024    -0.009441729277554
    -0.007421805156879    -0.021675949076449    -0.019418239832874
   2  20
    -0.021608088576077     0.025223528703884     0.010198782346623
     0.029190602934780    -0.020611728638556    -0.004357635673994
     0.024084751219676     0.005091020918878    -0.015291295620361
   2  21
     0.026999367091822    -0.019514429534222     0.001241442883482
     0.005108540606077    -0.029654732099009     0.003749472491296
    -0.000645385810423    -0.004749234019471     0.029867444018325
   2  22
    -0.732799949464126     0.845001510392840    -0.004883417307952
     0.846825323138716    -0.740718911301024    -0.004349354812339
     0.000276103945732    -0.000433295590718     0.092129355237640
   2  23
    -0.022093963225127     0.005999121530418    -0.001172608789104
    -0.018056886677444     0.030492879553752     0.000018825851081
    -0.007303748181551     0.003700539529012     0.032456858164013
   2  24
     0.001750462304395    -0.005751224767123    -0.025257074135877
    -0.001300659551267     0.002328585427502     0.019158520032230
    -0.008389532668286     0.008410504764322    -0.007334566118310
   2  25
     0.001701019683246    -0.002287030233519     0.020446113747337
    -0.002125286527843     0.004073716280092    -0.024463126738385
     0.008371884164050    -0.007225366754200    -0.005212693398389
   2  26
     0.078404826263422    -0.014764988027081     0.020653271224305
    -0.025030036783565    -0.823107279427896     0.876375668566964
     0.018425751300711     0.953489275063135    -0.831525145130385
   2  27
    -0.835472486748714    -0.013730931945832    -0.925031753751767
    -0.013187954473404     0.088860388566417    -0.008374524020811
    -0.995023873516978    -0.004135148254125    -0.874858103291165
   2  28
    -0.016594612426600    -0.004980999522196    -0.007552484307470
    -0.004794584994202    -0.014067530814841    -0.006090280065982
    -0.018196201404984    -0.014741253301140     0.002554833888512
   2  29
     0.083285625677186    -0.011207982463431    -0.005320887803418
    -0.012920508587709    -0.805924580168491    -0.883718929943535
    -0.002099851670313    -0.951326387884625    -0.834296480755489
   2  30
    -0.854315749196825    -0.024361953326383     0.909761516985592
    -0.011013585989592     0.084393286124072     0.018506856363388
     0.988356299198263     0.018965538687966    -0.877183186320435
   3   1
     0.011740770288090    -0.016273094355120    -0.033411118707599
    -0.020902338120994     0.019234012903439     0.025096692897703
     0.021721551834505    -0.027832516843276    -0.069755333213891
   3   2
    -0.686086290383177    -0.713938370973051     0.005878549250890
    -0.720772012000007    -0.692437854654255    -0.021082587727760
    -0.016832619107713     0.003682295624679    -0.085316022647483
   3   3
     6.490899463845609    -0.630592368605199     0.059130347896250
    -0.652073846145837     6.349952122071336     0.053101350719663
     0.047699868907018     0.036421248673569     6.650423719416183
   3   4
    -0.686248355956396    -0.721135369904257    -0.017016992084534
    -0.713684319873306    -0.692345893296975     0.002539043609842
     0.005986888178036    -0.020004172052854    -0.085384105078582
   3   5
     0.011778233828228    -0.021230540028740     0.021726991029696
    -0.015956968133708     0.019244756196767    -0.028878579740952
    -0.033357987007686     0.026105516257312    -0.069770051357499
   3   6
    -0.033777930723706    -0.021720441610943     0.011052390348808
    -0.020323431814426    -0.733025815772774     0.822569111646399
     0.011811666143050     0.823090288745333    -0.743395881058480
   3   7
    -0.769735708829768    -0.017084408635329     0.855956347061619
    -0.016169331990721    -0.025751690296856     0.005913253067962
     0.857027219976714     0.006037343398979    -0.793465960975408
   3   8
    -0.019846156520813    -0.001193027699382    -0.005423713138706
    -0.000039070664796    -0.711824620605873    -0.835380818779938
    -0.004621953895140    -0.835528487378112    -0.774503273884687
   3   9
    -0.047906108600216    -0.032651827702390     0.001568639502920
    -0.031521070654324    -0.049465307715688     0.009145749885979
     0.002132429861614     0.009117050112075     0.031960695910350
   3  10
    -0.734357413042022     0.002513921237397    -0.872267546852751
     0.003636078798346    -0.014824276895752    -0.008377451990616
    -0.871811051176169    -0.008125683236449    -0.807211161567530
   3  11
    -1.128382964419047     1.331423234713221    -0.007554993491490
     1.331727297126211    -1.140089715433444    -0.012146453242159
    -0.000201295609252    -0.006623409720056     0.133252044631635
   3  12
     0.005580813199491    -0.017467139805427     0.034268079092644
     0.004253800716305    -0.055252692939539     0.006763619338121
     0.027630817305508     0.005545827130329     0.002051985947669
   3  13
    -0.021322017590983    -0.003672690668629    -0.018625240822626
    -0.005068463906404     0.009383922813798    -0.022420277264371
    -0.018660807061544    -0.017485232325588    -0.026204348138053
   3  14
     0.011085934764558    -0.008111925942897    -0.022414196716986
    -0.003164181789119    -0.018954920814020    -0.017534872771818
    -0.017426585542836    -0.020576664356561    -0.031719566593886
   3  15
    -0.052296665945539     0.005812034449475     0.006365871365295
    -0.015740114515022     0.011593524979301     0.035874896119285
     0.005378576624445     0.030032599575707     0.008125178395225
   3  16
    -0.021608088576077     0.025223528703884     0.010198782346623
     0.029190602934780    -0.020611728638556    -0.004357635673994
     0.024084751219676     0.005091020918878    -0.015291295620361
   3  17
    -0.022223319167521     0.028267573019978    -0.001822050711212
     0.022627457015427    -0.021064321700574     0.009022501344177
     0.003554159998834     0.020446547571407    -0.015732665151257
   3  18
    -0.026316372127935     0.024660797363707    -0.008750136824053
     0.029183145209507    -0.023348130863098    -0.009918179950923
    -0.019347703413012    -0.004106766929198    -0.018239033308036
   3  19
     0.013773792244503     0.002756272669230     0.008053479071763
     0.001371627748036     0.015429007101529     0.008698336895841
    -0.001117723949877    -0.005563812831095     0.002994919575546
   3  20
    -0.025617618832574     0.030011852049226    -0.009798514965824
     0.029918621063205    -0.022515682828024    -0.009441729277554
    -0.007421805156879    -0.021675949076449    -0.019418239832874
   3  21
     0.001701019683246    -0.002287030233519     0.020446113747337
    -0.002125286527843     0.004073716280092    -0.024463126738385
     0.008371884164050    -0.007225366754200    -0.005212693398389
   3  22
     0.026999367091822    -0.019514429534222     0.001241442883482
     0.005108540606077    -0.029654732099009     0.003749472491296
    -0.000645385810423    -0.004749234019471     0.029867444018325
   3  23
    -0.732799949464126     0.845001510392840    -0.004883417307952
     0.846825323138716    -0.740718911301024    -0.004349354812339
     0.000276103945732    -0.000433295590718     0.092129355237640
   3  24
    -0.022093963225127     0.005999121530418    -0.001172608789104
    -0.018056886677444     0.030492879553752     0.000018825851081
    -0.007303748181551     0.003700539529012     0.032456858164013
   3  25
     0.001750462304395    -0.005751224767123    -0.025257074135877
    -0.001300659551267     0.002328585427502     0.019158520032230
    -0.008389532668286     0.008410504764322    -0.007334566118310
   3  26
    -0.854315749196825    -0.024361953326383     0.909761516985592
    -0.011013585989592     0.084393286124072     0.018506856363388
     0.988356299198263     0.018965538687966    -0.877183186320435
   3  27
     0.078404826263422    -0.014764988027081     0.020653271224305
    -0.025030036783565    -0.823107279427896     0.876375668566964
     0.018425751300711     0.953489275063135    -0.831525145130385
   3  28
    -0.835472486748714    -0.013730931945832    -0.925031753751767
    -0.013187954473404     0.088860388566417    -0.008374524020811
    -0.995023873516978    -0.004135148254125    -0.874858103291165
   3  29
    -0.016594612426600    -0.004980999522196    -0.007552484307470
    -0.004794584994202    -0.014067530814841    -0.006090280065982
    -0.018196201404984    -0.014741253301140     0.002554833888512
   3  30
     0.083285625677186    -0.011207982463431    -0.005320887803418
    -0.012920508587709    -0.805924580168491    -0.883718929943535
    -0.002099851670313    -0.951326387884625    -0.834296480755489
   4   1
     0.011778233828228    -0.021230540028740     0.021726991029696
    -0.015956968133708     0.019244756196767    -0.028878579740952
    -0.033357987007686     0.026105516257312    -0.069770051357499
   4   2
     0.011740770288090    -0.016273094355120    -0.033411118707599
    -0.020902338120994     0.019234012903439     0.025096692897703
     0.021721551834505    -0.027832516843276    -0.069755333213891
   4   3
    -0.686086290383177    -0.713938370973051     0.005878549250890
    -0.720772012000007    -0.692437854654255    -0.021082587727760
    -0.016832619107713     0.003682295624679    -0.085316022647483
   4   4
     6.490899463845609    -0.630592368605199     0.059130347896250
    -0.652073846145837     6.349952122071336     0.053101350719663
     0.047699868907018     0.036421248673569     6.650423719416183
   4   5
    -0.686248355956396    -0.721135369904257    -0.017016992084534
    -0.713684319873306    -0.692345893296975     0.002539043609842
     0.005986888178036    -0.020004172052854    -0.085384105078582
   4   6
    -0.734357413042022     0.002513921237397    -0.872267546852751
     0.003636078798346    -0.014824276895752    -0.008377451990616
    -0.871811051176169    -0.008125683236449    -0.807211161567530
   4   7
    -0.033777930723706    -0.021720441610943     0.011052390348808
    -0.020323431814426    -0.733025815772774     0.822569111646399
     0.011811666143050     0.823090288745333    -0.743395881058480
   4   8
    -0.769735708829768    -0.017084408635329     0.855956347061619
    -0.016169331990721    -0.025751690296856     0.005913253067962
     0.857027219976714     0.006037343398979    -0.793465960975408
   4   9
    -0.019846156520813    -0.001193027699382    -0.005423713138706
    -0.000039070664796    -0.711824620605873    -0.835380818779938
    -0.004621953895140    -0.835528487378112    -0.774503273884687
   4  10
    -0.047906108600216    -0.032651827702390     0.001568639502920
    -0.031521070654324    -0.049465307715688     0.009145749885979
     0.002132429861614     0.009117050112075     0.031960695910350
   4  11
    -0.052296665945539     0.005812034449475     0.006365871365295
    -0.015740114515022     0.011593524979301     0.035874896119285
     0.005378576624445     0.030032599575707     0.008125178395225
   4  12
    -1.128382964419047     1.331423234713221    -0.007554993491490
     1.331727297126211    -1.140089715433444    -0.012146453242159
    -0.000201295609252    -0.006623409720056     0.133252044631635
   4  13
     0.005580813199491    -0.017467139805427     0.034268079092644
     0.004253800716305    -0.055252692939539     0.006763619338121
     0.027630817305508     0.005545827130329     0.002051985947669
   4  14
    -0.021322017590983    -0.003672690668629    -0.018625240822626
    -0.005068463906404     0.009383922813798    -0.022420277264371
    -0.018660807061544    -0.017485232325588    -0.026204348138053
   4  15
     0.011085934764558    -0.008111925942897    -0.022414196716986
    -0.003164181789119    -0.018954920814020    -0.017534872771818
    -0.017426585542836    -0.020576664356561    -0.031719566593886
   4  16
    -0.025617618832574     0.030011852049226    -0.009798514965824
     0.029918621063205    -0.022515682828024    -0.009441729277554
    -0.007421805156879    -0.021675949076449    -0.019418239832874
   4  17
    -0.021608088576077     0.025223528703884     0.010198782346623
     0.029190602934780    -0.020611728638556    -0.004357635673994
     0.024084751219676     0.005091020918878    -0.015291295620361
   4  18
    -0.022223319167521     0.028267573019978    -0.001822050711212
     0.022627457015427    -0.021064321700574     0.009022501344177
     0.003554159998834     0.020446547571407    -0.015732665151257
   4  19
    -0.026316372127935     0.024660797363707    -0.008750136824053
     0.029183145209507    -0.023348130863098    -0.009918179950923
    -0.019347703413012    -0.004106766929198    -0.018239033308036
   4  20
     0.013773792244503     0.002756272669230     0.008053479071763
     0.001371627748036     0.015429007101529     0.008698336895841
    -0.001117723949877    -0.005563812831095     0.002994919575546
   4  21
     0.001750462304395    -0.005751224767123    -0.025257074135877
    -0.001300659551267     0.002328585427502     0.019158520032230
    -0.008389532668286     0.008410504764322    -0.007334566118310
   4  22
     0.001701019683246    -0.002287030233519     0.020446113747337
    -0.002125286527843     0.004073716280092    -0.024463126738385
     0.008371884164050    -0.007225366754200    -0.005212693398389
   4  23
     0.026999367091822    -0.019514429534222     0.001241442883482
     0.005108540606077    -0.029654732099009     0.003749472491296
    -0.000645385810423    -0.004749234019471     0.029867444018325
   4  24
    -0.732799949464126     0.845001510392840    -0.004883417307952
     0.846825323138716    -0.740718911301024    -0.004349354812339
     0.000276103945732    -0.000433295590718     0.092129355237640
   4  25
    -0.022093963225127     0.005999121530418    -0.001172608789104
    -0.018056886677444     0.030492879553752     0.000018825851081
    -0.007303748181551     0.003700539529012     0.032456858164013
   4  26
     0.083285625677186    -0.011207982463431    -0.005320887803418
    -0.012920508587709    -0.805924580168491    -0.883718929943535
    -0.002099851670313    -0.951326387884625    -0.834296480755489
   4  27
    -0.854315749196825    -0.024361953326383     0.909761516985592
    -0.011013585989592     0.084393286124072     0.018506856363388
     0.988356299198263     0.018965538687966    -0.877183186320435
   4  28
     0.078404826263422    -0.014764988027081     0.020653271224305
    -0.025030036783565    -0.823107279427896     0.876375668566964
     0.018425751300711     0.953489275063135    -0.831525145130385
   4  29
    -0.835472486748714    -0.013730931945832    -0.925031753751767
    -0.013187954473404     0.088860388566417    -0.008374524020811
    -0.995023873516978    -0.004135148254125    -0.874858103291165
   4  30
    -0.016594612426600    -0.004980999522196    -0.007552484307470
    -0.004794584994202    -0.014067530814841    -0.006090280065982
    -0.018196201404984    -0.014741253301140     0.002554833888512
   5   1
    -0.686248355956396    -0.721135369904257    -0.017016992084534
    -0.713684319873306    -0.692345893296975     0.002539043609842
     0.005986888178036    -0.020004172052854    -0.085384105078582
   5   2
     0.011778233828228    -0.021230540028740     0.021726991029696
    -0.015956968133708     0.019244756196767    -0.028878579740952
    -0.033357987007686     0.026105516257312    -0.069770051357499
   5   3
     0.011740770288090    -0.016273094355120    -0.033411118707599
    -0.020902338120994     0.019234012903439     0.025096692897703
     0.021721551834505    -0.027832516843276    -0.069755333213891
   5   4
    -0.686086290383177    -0.713938370973051     0.005878549250890
    -0.720772012000007    -0.692437854654255    -0.021082587727760
    -0.016832619107713     0.003682295624679    -0.085316022647483
   5   5
     6.490899463845609    -0.630592368605199     0.059130347896250
    -0.652073846145837     6.349952122071336     0.053101350719663
     0.047699868907018     0.036421248673569     6.650423719416183
   5   6
    -0.047906108600216    -0.032651827702390     0.001568639502920
    -0.031521070654324    -0.049465307715688     0.009145749885979
     0.002132429861614     0.009117050112075     0.031960695910350
   5   7
    -0.734357413042022     0.002513921237397    -0.872267546852751
     0.003636078798346    -0.014824276895752    -0.008377451990616
    -0.871811051176169    -0.008125683236449    -0.807211161567530
   5   8
    -0.033777930723706    -0.021720441610943     0.011052390348808
    -0.020323431814426    -0.733025815772774     0.822569111646399
     0.011811666143050     0.823090288745333    -0.743395881058480
   5   9
    -0.769735708829768    -0.017084408635329     0.855956347061619
    -0.016169331990721    -0.025751690296856     0.005913253067962
     0.857027219976714     0.006037343398979    -0.793465960975408
   5  10
    -0.019846156520813    -0.001193027699382    -0.005423713138706
    -0.000039070664796    -0.711824620605873    -0.835380818779938
    -0.004621953895140    -0.835528487378112    -0.774503273884687
   5  11
     0.011085934764558    -0.008111925942897    -0.022414196716986
    -0.003164181789119    -0.018954920814020    -0.017534872771818
    -0.017426585542836    -0.020576664356561    -0.031719566593886
   5  12
    -0.052296665945539     0.005812034449475     0.006365871365295
    -0.015740114515022     0.011593524979301     0.035874896119285
     0.005378576624445     0.030032599575707     0.008125178395225
   5  13
    -1.128382964419047     1.331423234713221    -0.007554993491490
     1.331727297126211    -1.140089715433444    -0.012146453242159
    -0.000201295609252    -0.006623409720056     0.133252044631635
   5  14
     0.005580813199491    -0.017467139805427     0.034268079092644
     0.004253800716305    -0.055252692939539     0.006763619338121
     0.027630817305508     0.005545827130329     0.002051985947669
   5  15
    -0.021322017590983    -0.003672690668629    -0.018625240822626
    -0.005068463906404     0.009383922813798    -0.022420277264371
    -0.018660807061544    -0.017485232325588    -0.026204348138053
   5  16
     0.013773792244503     0.002756272669230     0.008053479071763
     0.001371627748036     0.015429007101529     0.008698336895841
    -0.001117723949877    -0.005563812831095     0.002994919575546
   5  17
    -0.025617618832574     0.030011852049226    -0.009798514965824
     0.029918621063205    -0.022515682828024    -0.009441729277554
    -0.007421805156879    -0.021675949076449    -0.019418239832874
   5  18
    -0.021608088576077     0.025223528703884     0.010198782346623
     0.029190602934780    -0.020611728638556    -0.004357635673994
     0.024084751219676     0.005091020918878    -0.015291295620361
   5  19
    -0.022223319167521     0.028267573019978    -0.001822050711212
     0.022627457015427    -0.021064321700574     0.009022501344177
     0.003554159998834     0.020446547571407    -0.015732665151257
   5  20
    -0.026316372127935     0.024660797363707    -0.008750136824053
     0.029183145209507    -0.023348130863098    -0.009918179950923
    -0.019347703413012    -0.004106766929198    -0.018239033308036
   5  21
    -0.022093963225127     0.005999121530418    -0.001172608789104
    -0.018056886677444     0.030492879553752     0.000018825851081
    -0.007303748181551     0.003700539529012     0.032456858164013
   5  22
     0.001750462304395    -0.005751224767123    -0.025257074135877
    -0.001300659551267     0.002328585427502     0.019158520032230
    -0.008389532668286     0.008410504764322    -0.007334566118310
   5  23
     0.001701019683246    -0.002287030233519     0.020446113747337
    -0.002125286527843     0.004073716280092    -0.024463126738385