30
Lattice="0.0051680480422696 -8.114880535036942 0.0067130579896224 8.13533381319284 -2.035531738653871 2.0317314509930426 2.0311171232737912 -2.036706127810682 8.136559225219834" Properties=Z:I:1:pos:R:3:vasp_force:R:3 uuid=190a6fa1-d988-48a6-9ccf-6b1bd800b5d0 vasp_virial="0.03413929103752909 -0.32570448720863854 -0.4195238976241182 -0.32570448720863854 0.000842247077055859 -0.12332948524217564 -0.4195238976241182 -0.12332948524217564 -0.11838285502095955" vasp_energy=-108.19334022 pbc="T T T"
      46       8.13714719      -8.13305463       4.07194888       0.00103700       0.06066500       0.00182500 
      46       2.03199637      -2.03304215       4.06983946      -0.00155000      -0.00084100       0.00046800 
      46       4.06735377      -6.09344194       6.10618282      -0.00145900      -0.00055300       0.00122300 
      46       6.10271118     -10.15384172       8.14252618      -0.00158900      -0.00016100       0.00114200 
      46       6.10178341      -4.06265485       2.03559725      -0.00118200      -0.00101700      -0.00008000 
      46       6.10458932      -8.12400713       6.10443925       0.00125400      -0.00086600       0.00025700 
      46       8.13477868      -4.06952638       8.13406955       0.00184200       0.00009200       0.00055500 
      46       2.03480227      -6.09439443       8.13868146       0.00148900      -0.00692600       0.00666500 
      46       2.03904256      -8.11808809       2.03846559       0.00777400      -0.00676200      -0.00071900 
      46       4.06923191      -4.06360734       4.06809589       0.00077100       0.00119800      -0.00063200 
      47       4.07816310      -2.03657942       6.08969066      -0.00244100       0.00172000      -0.00114500 
      47       6.11352051      -6.09697921       8.12603402      -0.00245800       0.00138600      -0.00154200 
      47       6.11776079      -8.12067287       2.02581815      -0.00211700       0.00206700      -0.00116300 
      47       8.14795015      -4.06619212       4.05544845      -0.00223800       0.00147400      -0.00135800 
      47       2.04797374      -6.09106017       4.06006036      -0.00181000       0.00270300      -0.00109100 
      47       4.06870560      -8.12416579       8.14060940      -0.00024500       0.00097200       0.00025400 
      47       4.06777784      -2.03297891       2.03368048       0.00051100      -0.00010900      -0.00020900 
      47       6.10313525      -6.09337870       4.07002384       0.00878900      -0.00752000      -0.00054500 
      47       8.13849265     -10.15377849       6.10636719       0.00032100      -0.00768400       0.00830600 
      47       2.03334820      -4.06376600       6.10426604      -0.00017600      -0.00016200       0.00033000 
      47       8.12825899     -10.15016225       2.05039852       0.00147600      -0.01011000      -0.00770100 
      47       2.02311453      -4.06014976       2.04829737      -0.00653100      -0.00957800       0.00155200 
      47       4.05847194      -8.12054955       4.08464073       0.00249300      -0.00133900       0.00087600 
      47       6.08866130      -4.06606880       6.11427103       0.00205600      -0.00233700       0.00051600 
      47       8.12401870      -8.12646859       8.15061439       0.00136700      -0.00181600       0.00077200 
      47       6.10055955      -2.03595820       4.06667738      -0.00826300      -0.00774600      -0.00043900 
      47       8.13591696      -6.09635799       6.10302074       0.00047500      -0.00739800      -0.00877900 
      47       2.03594055      -8.12122604       6.10763265      -0.00012400       0.00017700       0.00050100 
      47       4.06612991      -4.06674529       8.13726295      -0.00010600       0.00024000       0.00036900 
      47       4.07037019      -6.09043895       2.03704708       0.00063200       0.00022900      -0.00020900 
30
Lattice="0.0051680480422696 -8.114880535036942 0.0067130579896224 8.13533381319284 -2.035531738653871 2.0317314509930426 2.0311171232737912 -2.036706127810682 8.136559225219834" Properties=Z:I:1:pos:R:3:vasp_force:R:3 uuid=3ee243bb-9d80-411d-8925-2e28d6b299d5 vasp_virial="0.033473035887022225 -0.3249156662521422 -0.4213560992880121 -0.3249156662521422 -0.0005751164742582918 -0.12399888310565664 -0.4213560992880121 -0.12399888310565664 -0.12020562854593117" vasp_energy=-108.19333033 pbc="T T T"
      46       8.13714082      -8.12305464       4.07194061      -0.00522800      -0.00021600       0.00571400 
      46       2.03199637      -2.03304215       4.06983946      -0.00170400      -0.00067600       0.00052000 
      46       4.06735377      -6.09344194       6.10618282      -0.00997100       0.00817300       0.00133500 
      46       6.10271118     -10.15384172       8.14252618      -0.00164500       0.00316900      -0.00236900 
      46       6.10178341      -4.06265485       2.03559725      -0.00064600      -0.00087400      -0.00044700 
      46       6.09516113      -8.12164811       6.10208464       0.05765900      -0.01284900       0.01417400 
      46       8.13477868      -4.06952638       8.13406955       0.00179700      -0.00008800       0.00074600 
      46       2.03480227      -6.09439443       8.13868146       0.00152600       0.00012500      -0.00068000 
      46       2.03904256      -8.11808809       2.03846559       0.00019200       0.00024600      -0.00053600 
      46       4.06923191      -4.06360734       4.06809589       0.00059500       0.00076100      -0.00022400 
      47       4.07816310      -2.03657942       6.08969066      -0.00780300      -0.00500900      -0.00063500 
      47       6.11352051      -6.09697921       8.12603402      -0.00127100       0.00119800      -0.00122600 
      47       6.11776079      -8.12067287       2.02581815      -0.00203100       0.00144900      -0.00136000 
      47       8.14795015      -4.06619212       4.05544845      -0.00218400       0.00225100      -0.00127900 
      47       2.04797374      -6.09106017       4.06006036      -0.00226800       0.00206500      -0.00120800 
      47       4.06870560      -8.12416579       8.14060940      -0.00566400       0.00011400       0.00645800 
      47       4.06777784      -2.03297891       2.03368048       0.00044200       0.00015000      -0.00048200 
      47       6.10313525      -6.09337870       4.07002384       0.00091300       0.00417100      -0.00437600 
      47       8.13849265     -10.15377849       6.10636719      -0.00892200       0.00984000      -0.00008700 
      47       2.03334820      -4.06376600       6.10426604      -0.00056900       0.00035700       0.00007700 
      47       8.12825899     -10.15016225       2.05039852       0.00130300      -0.00197900       0.00168400 
      47       2.02311453      -4.06014976       2.04829737       0.00218900      -0.00164600       0.00173700 
      47       4.05847194      -8.12054955       4.08464073      -0.00721500      -0.00173800      -0.00890200 
      47       6.08866130      -4.06606880       6.11427103       0.00230900      -0.00176000       0.00061600 
      47       8.12401870      -8.12646859       8.15061439      -0.00768000      -0.00224600      -0.00893500 
      47       6.10055955      -2.03595820       4.06667738       0.00134800       0.00016700      -0.00017900 
      47       8.13591696      -6.09635799       6.10302074      -0.00493300      -0.00571900       0.00005300 
      47       2.03594055      -8.12122604       6.10763265      -0.00080800       0.00006800       0.00012500 
      47       4.06612991      -4.06674529       8.13726295      -0.00023800       0.00038000       0.00024800 
      47       4.07037019      -6.09043895       2.03704708       0.00050800       0.00011700      -0.00056300 
30
Lattice="0.0051680480422696 -8.114880535036942 0.0067130579896224 8.13533381319284 -2.035531738653871 2.0317314509930426 2.0311171232737912 -2.036706127810682 8.136559225219834" Properties=Z:I:1:pos:R:3:vasp_force:R:3 uuid=510daac0-1eba-4bbe-9c04-09c30d7f7b9b vasp_virial="0.038960212739781654 -0.33054426518873553 -0.4208626933510801 -0.33054426518873553 0.00034569842714979294 -0.11845513741936357 -0.4208626933510801 -0.11845513741936357 -0.12283293659226958" vasp_energy=-108.19335008 pbc="T T T"
      46       8.13714082      -8.12305464       4.07194061      -0.00641000       0.00008700       0.00458600 
      46       2.03199637      -2.03304215       4.06983946      -0.00132900      -0.00029200       0.00045200 
      46       4.06735377      -6.09344194       6.10618282       0.00132700      -0.00371000       0.00115500 
      46       6.10271118     -10.15384172       8.14252618      -0.00171900      -0.00873400       0.00901600 
      46       6.10178341      -4.06265485       2.03559725      -0.00072700      -0.00038300      -0.00012600 
      46       6.10694287      -8.12636715       6.11386746      -0.01356000       0.01100900      -0.05761600 
      46       8.13477868      -4.06952638       8.13406955       0.00165800      -0.00007700       0.00111200 
      46       2.03480227      -6.09439443       8.13868146       0.00141400      -0.00040300      -0.00023800 
      46       2.03904256      -8.11808809       2.03846559       0.00061000      -0.00026000      -0.00061400 
      46       4.06923191      -4.06360734       4.06809589       0.00086900       0.00075100      -0.00028100 
      47       4.07816310      -2.03657942       6.08969066      -0.00250600       0.00192600      -0.00181100 
      47       6.11352051      -6.09697921       8.12603402      -0.00249100       0.00813600       0.00413000 
      47       6.11776079      -8.12067287       2.02581815      -0.00196500       0.00158700      -0.00071100 
      47       8.14795015      -4.06619212       4.05544845      -0.00200200       0.00197300      -0.00103500 
      47       2.04797374      -6.09106017       4.06006036      -0.00161300       0.00223500      -0.00110300 
      47       4.06870560      -8.12416579       8.14060940      -0.00628500       0.00068700       0.00587900 
      47       4.06777784      -2.03297891       2.03368048       0.00052100      -0.00008100       0.00011700 
      47       6.10313525      -6.09337870       4.07002384       0.00056600      -0.00913500       0.00878500 
      47       8.13849265     -10.15377849       6.10636719       0.00424300      -0.00349000      -0.00051400 
      47       2.03334820      -4.06376600       6.10426604       0.00006700       0.00002700       0.00015700 
      47       8.12825899     -10.15016225       2.05039852       0.00117300      -0.00172000       0.00154100 
      47       2.02311453      -4.06014976       2.04829737       0.00204200      -0.00136700       0.00162300 
      47       4.05847194      -8.12054955       4.08464073       0.01186000      -0.00144400       0.00998800 
      47       6.08866130      -4.06606880       6.11427103       0.00178900      -0.00219500       0.00006700 
      47       8.12401870      -8.12646859       8.15061439       0.01121200      -0.00196200       0.01016800 
      47       6.10055955      -2.03595820       4.06667738       0.00044000       0.00624900       0.00491600 
      47       8.13591696      -6.09635799       6.10302074       0.00009100       0.00032700      -0.00084300 
      47       2.03594055      -8.12122604       6.10763265       0.00017900      -0.00003500       0.00023700 
      47       4.06612991      -4.06674529       8.13726295      -0.00000100       0.00029800       0.00051500 
      47       4.07037019      -6.09043895       2.03704708       0.00054500      -0.00000200       0.00044800 
30
Lattice="0.0051680480422696 -8.114880535036942 0.0067130579896224 8.13533381319284 -2.035531738653871 2.0317314509930426 2.0311171232737912 -2.036706127810682 8.136559225219834" Properties=Z:I:1:pos:R:3:vasp_force:R:3 uuid=47f4bc03-d8b2-4d10-b019-1f73213a6b80 vasp_virial="0.03341018162754045 -0.3260219012190215 -0.4175628447282867 -0.3260219012190215 5.028340758542443e-05 -0.1257242325284315 -0.4175628447282867 -0.1257242325284315 -0.11993221251718543" vasp_energy=-108.19334486 pbc="T T T"
      46       8.13714082      -8.12305464       4.07194061       0.00508700      -0.00023300      -0.00457600 
      46       2.03199637      -2.03304215       4.06983946      -0.00192200      -0.00063400       0.00100800 
      46       4.06735377      -6.09344194       6.10618282      -0.00495600       0.00280100       0.00119200 
      46       6.10271118     -10.15384172       8.14252618      -0.00151000       0.00813700      -0.00708100 
      46       6.10178341      -4.06265485       2.03559725      -0.00110000      -0.00088100      -0.00025300 
      46       6.10223577      -8.12164710       6.09501104       0.01539500      -0.01317800       0.05697000 
      46       8.13477868      -4.06952638       8.13406955       0.00230400      -0.00030800       0.00033900 
      46       2.03480227      -6.09439443       8.13868146       0.00165200      -0.00005500      -0.00058300 
      46       2.03904256      -8.11808809       2.03846559       0.00007800       0.00049700      -0.00066500 
      46       4.06923191      -4.06360734       4.06809589       0.00094600       0.00104800      -0.00078000 
      47       4.07816310      -2.03657942       6.08969066      -0.00211700       0.00157700       0.00001500 
      47       6.11352051      -6.09697921       8.12603402      -0.00198700      -0.00517100      -0.00683600 
      47       6.11776079      -8.12067287       2.02581815      -0.00226900       0.00148500      -0.00161000 
      47       8.14795015      -4.06619212       4.05544845      -0.00211800       0.00227400      -0.00135800 
      47       2.04797374      -6.09106017       4.06006036      -0.00205200       0.00208500      -0.00100600 
      47       4.06870560      -8.12416579       8.14060940       0.00583700       0.00015500      -0.00512300 
      47       4.06777784      -2.03297891       2.03368048       0.00018800       0.00035700      -0.00059700 
      47       6.10313525      -6.09337870       4.07002384       0.00062800       0.01015700      -0.01011000 
      47       8.13849265     -10.15377849       6.10636719      -0.00348500       0.00424800       0.00015100 
      47       2.03334820      -4.06376600       6.10426604      -0.00042200       0.00014400       0.00032800 
      47       8.12825899     -10.15016225       2.05039852       0.00166600      -0.00194600       0.00135700 
      47       2.02311453      -4.06014976       2.04829737       0.00250800      -0.00168500       0.00135700 
      47       4.05847194      -8.12054955       4.08464073      -0.00763100      -0.00176300      -0.00851200 
      47       6.08866130      -4.06606880       6.11427103       0.00214300      -0.00177000       0.00078300 
      47       8.12401870      -8.12646859       8.15061439      -0.00798500      -0.00220000      -0.00857700 
      47       6.10055955      -2.03595820       4.06667738       0.00086900      -0.00599600      -0.00597200 
      47       8.13591696      -6.09635799       6.10302074       0.00069200       0.00025500       0.00051100 
      47       2.03594055      -8.12122604       6.10763265      -0.00049000       0.00005000       0.00031700 
      47       4.06612991      -4.06674529       8.13726295      -0.00023800       0.00038100       0.00022300 
      47       4.07037019      -6.09043895       2.03704708       0.00029100       0.00016800      -0.00091300 
30
Lattice="0.0051680480422696 -8.114880535036942 0.0067130579896224 8.13533381319284 -2.035531738653871 2.0317314509930426 2.0311171232737912 -2.036706127810682 8.136559225219834" Properties=Z:I:1:pos:R:3:vasp_force:R:3 uuid=c4986cb7-037b-4c6e-af60-c5dc6fa4129a vasp_virial="0.03725371959485132 -0.3315970740350554 -0.41948618506842905 -0.3315970740350554 0.000245131611978944 -0.1191339634217668 -0.41948618506842905 -0.1191339634217668 -0.12249666630404209" vasp_energy=-108.19332003 pbc="T T T"
      46       8.13714082      -8.12305464       4.07194061      -0.00084200      -0.00008000      -0.00014600 
      46       2.03199637      -2.03304215       4.06983946      -0.00161300       0.00008500       0.00068100 
      46       4.06735377      -6.09344194       6.10618282      -0.00174800      -0.00112400       0.00117000 
      46       6.10271118     -10.15384172       8.14252618      -0.00166500       0.00045400       0.00076500 
      46       6.10178341      -4.06265485       2.03559725      -0.00106000      -0.00063900      -0.00031600 
      46       6.10458932      -8.12400713       6.10443925      -0.00761500      -0.00909700       0.00039600 
      46       8.13477868      -4.06952638       8.13406955       0.00194200       0.00006600       0.00067800 
      46       2.03480227      -6.09439443       8.13868146       0.00154900      -0.00057800      -0.00039100 
      46       2.03904256      -8.11808809       2.03846559       0.00030900       0.00040100      -0.00066100 
      46       4.06923191      -4.06360734       4.06809589       0.00093400      -0.00736700      -0.00985400 
      47       4.07816947      -2.04657942       6.08969893      -0.00305600       0.06379800      -0.00136100 
      47       6.11352051      -6.09697921       8.12603402      -0.00220700       0.00087200      -0.00136400 
      47       6.11776079      -8.12067287       2.02581815      -0.00203100       0.00151000      -0.00108500 
      47       8.14795015      -4.06619212       4.05544845      -0.00197600       0.00210000      -0.00110500 
      47       2.04797374      -6.09106017       4.06006036      -0.00178400       0.00163100      -0.00103400 
      47       4.06870560      -8.12416579       8.14060940      -0.00005000      -0.00723700      -0.00859000 
      47       4.06777784      -2.03297891       2.03368048       0.00035100       0.00033900      -0.00015300 
      47       6.10313525      -6.09337870       4.07002384       0.00058700       0.00002800      -0.00048900 
      47       8.13849265     -10.15377849       6.10636719       0.00043300       0.00058800      -0.00017500 
      47       2.03334820      -4.06376600       6.10426604      -0.00938300      -0.00780600       0.00031100 
      47       8.12825899     -10.15016225       2.05039852       0.00147000      -0.00050700       0.00145700 
      47       2.02311453      -4.06014976       2.04829737       0.00224300      -0.00149200       0.00133400 
      47       4.05847194      -8.12054955       4.08464073       0.00242500      -0.01012300       0.01072800 
      47       6.08866130      -4.06606880       6.11427103       0.01222700      -0.01080200       0.00049400 
      47       8.12401870      -8.12646859       8.15061439       0.00127500      -0.00206200       0.00056000 
      47       6.10055955      -2.03595820       4.06667738       0.00058000       0.00175400      -0.00051700 
      47       8.13591696      -6.09635799       6.10302074       0.00001700       0.00002600      -0.00021800 
      47       2.03594055      -8.12122604       6.10763265       0.00858700      -0.00730800       0.00013200 
      47       4.06612991      -4.06674529       8.13726295      -0.00026500      -0.00722300       0.00941900 
      47       4.07037019      -6.09043895       2.03704708       0.00036500      -0.00020800      -0.00066600 
30
Lattice="0.0051680480422696 -8.114880535036942 0.0067130579896224 8.13533381319284 -2.035531738653871 2.0317314509930426 2.0311171232737912 -2.036706127810682 8.136559225219834" Properties=Z:I:1:pos:R:3:vasp_force:R:3 uuid=929dd134-036f-47c5-8552-a8358f014f4b vasp_virial="0.03527066770820114 -0.3260250439319956 -0.41892992487201536 -0.3260250439319956 -0.00028284416766801237 -0.12463056841344851 -0.41892992487201536 -0.12463056841344851 -0.12063932293635546" vasp_energy=-108.19335134 pbc="T T T"
      46       8.13714082      -8.12305464       4.07194061      -0.00065200      -0.00005100       0.00018900 
      46       2.03199637      -2.03304215       4.06983946      -0.00163800      -0.00100800       0.00075900 
      46       4.06735377      -6.09344194       6.10618282      -0.00186300       0.00017500       0.00111100 
      46       6.10271118     -10.15384172       8.14252618      -0.00159300      -0.00061700       0.00074100 
      46       6.10178341      -4.06265485       2.03559725      -0.00078600      -0.00062400      -0.00010300 
      46       6.10458932      -8.12400713       6.10443925       0.01062200       0.00725000       0.00034800 
      46       8.13477868      -4.06952638       8.13406955       0.00201200      -0.00045100       0.00073000 
      46       2.03480227      -6.09439443       8.13868146       0.00149000       0.00012700      -0.00048200 
      46       2.03904256      -8.11808809       2.03846559       0.00036600      -0.00015800      -0.00067000 
      46       4.06923191      -4.06360734       4.06809589       0.00086200       0.00891900       0.00838200 
      47       4.08332478     -10.14145996       6.09639545      -0.00192700      -0.06049400      -0.00041000 
      47       6.11352051      -6.09697921       8.12603402      -0.00227800       0.00193000      -0.00148400 
      47       6.11776079      -8.12067287       2.02581815      -0.00222100       0.00156300      -0.00129200 
      47       8.14795015      -4.06619212       4.05544845      -0.00216500       0.00215300      -0.00133400 
      47       2.04797374      -6.09106017       4.06006036      -0.00189100       0.00268800      -0.00112100 
      47       4.06870560      -8.12416579       8.14060940      -0.00026100       0.00829000       0.00952100 
      47       4.06777784      -2.03297891       2.03368048       0.00034000      -0.00005200      -0.00038000 
      47       6.10313525      -6.09337870       4.07002384       0.00056600       0.00055300      -0.00050900 
      47       8.13849265     -10.15377849       6.10636719       0.00025300       0.00022300      -0.00020000 
      47       2.03334820      -4.06376600       6.10426604       0.00869400       0.00776400       0.00012400 
      47       8.12825899     -10.15016225       2.05039852       0.00137900      -0.00315400       0.00136400 
      47       2.02311453      -4.06014976       2.04829737       0.00228500      -0.00155600       0.00160200 
      47       4.05847194      -8.12054955       4.08464073       0.00222800       0.00718600      -0.00928300 
      47       6.08866130      -4.06606880       6.11427103      -0.00796200       0.00659600       0.00030700 
      47       8.12401870      -8.12646859       8.15061439       0.00148200      -0.00211700       0.00059500 
      47       6.10055955      -2.03595820       4.06667738       0.00065700      -0.00132800      -0.00045100 
      47       8.13591696      -6.09635799       6.10302074       0.00077700       0.00058400      -0.00016400 
      47       2.03594055      -8.12122604       6.10763265      -0.00923300       0.00753900       0.00037600 
      47       4.06612991      -4.06674529       8.13726295       0.00000600       0.00769700      -0.00841900 
      47       4.07037019      -6.09043895       2.03704708       0.00045100       0.00037300       0.00015100 
30
Lattice="0.0051680480422696 -8.114880535036942 0.0067130579896224 8.13533381319284 -2.035531738653871 2.0317314509930426 2.0311171232737912 -2.036706127810682 8.136559225219834" Properties=Z:I:1:pos:R:3:vasp_force:R:3 uuid=dae0c387-d9f0-421a-ada4-d96e55f534a0 vasp_virial="0.042212920667963796 -0.33134251428415423 -0.421849505224944 -0.33134251428415423 0.0036486897629173596 -0.1214564283096186 -0.421849505224944 -0.1214564283096186 -0.11886054739302106" vasp_energy=-108.19332064 pbc="T T T"
      46       8.13714082      -8.12305464       4.07194061      -0.00063600       0.00009200      -0.00022000 
      46       2.03199637      -2.03304215       4.06983946       0.00751100      -0.00036300       0.01017000 
      46       4.06735377      -6.09344194       6.10618282      -0.00207600      -0.00043200       0.00099300 
      46       6.10271118     -10.15384172       8.14252618       0.00786900       0.00007400       0.01060000 
      46       6.10178341      -4.06265485       2.03559725      -0.00076600      -0.00039900      -0.00045400 
      46       6.10458932      -8.12400713       6.10443925       0.00676600       0.00555000       0.00016900 
      46       8.13477868      -4.06952638       8.13406955       0.00241200      -0.00027500       0.00075500 
      46       2.03480227      -6.09439443       8.13868146       0.00165100      -0.00042300      -0.00039700 
      46       2.03904256      -8.11808809       2.03846559       0.00024000       0.00015900      -0.00039400 
      46       4.06923191      -4.06360734       4.06809589      -0.00003700       0.00104600      -0.00083900 
      47       4.08759129      -2.03893844       6.09204527      -0.05965000       0.01719700      -0.01431500 
      47       6.11352051      -6.09697921       8.12603402      -0.00210600       0.00120600      -0.00131900 
      47       6.11776079      -8.12067287       2.02581815      -0.00153600       0.00140600      -0.00106800 
      47       8.14795015      -4.06619212       4.05544845      -0.00149600       0.00199600      -0.00105000 
      47       2.04797374      -6.09106017       4.06006036      -0.00168700       0.00197800      -0.00100600 
      47       4.06870560      -8.12416579       8.14060940      -0.00141000       0.00064500      -0.00003200 
      47       4.06777784      -2.03297891       2.03368048       0.00017000       0.00010100       0.00009100 
      47       6.10313525      -6.09337870       4.07002384       0.00062800       0.00023700      -0.00054800 
      47       8.13849265     -10.15377849       6.10636719       0.00118300       0.00033200      -0.00017300 
      47       2.03334820      -4.06376600       6.10426604       0.00506200       0.00658600      -0.00018700 
      47       8.12825899     -10.15016225       2.05039852       0.00565100      -0.00159000      -0.00419700 
      47       2.02311453      -4.06014976       2.04829737       0.00225000      -0.00147600       0.00155200 
      47       4.05847194      -8.12054955       4.08464073       0.00102200      -0.00606800       0.00538000 
      47       6.08866130      -4.06606880       6.11427103       0.01269200      -0.01380900       0.00016000 
      47       8.12401870      -8.12646859       8.15061439       0.00149000      -0.00198900       0.00064900 
      47       6.10055955      -2.03595820       4.06667738       0.00633800       0.00059700      -0.00801000 
      47       8.13591696      -6.09635799       6.10302074       0.00076800       0.00063600      -0.00011000 
      47       2.03594055      -8.12122604       6.10763265       0.00885400      -0.00975700      -0.00024700 
      47       4.06612991      -4.06674529       8.13726295      -0.00153400      -0.00342700       0.00414200 
      47       4.07037019      -6.09043895       2.03704708       0.00037300       0.00016900      -0.00009400 
30
Lattice="0.0051680480422696 -8.114880535036942 0.0067130579896224 8.13533381319284 -2.035531738653871 2.0317314509930426 2.0311171232737912 -2.036706127810682 8.136559225219834" Properties=Z:I:1:pos:R:3:vasp_force:R:3 uuid=98d80bc8-2f52-4365-9df0-1b1cd8581233 vasp_virial="0.030965150933699174 -0.32722556028809757 -0.4159977736671903 -0.32722556028809757 -0.0027058758706906515 -0.12278893861063235 -0.4159977736671903 -0.12278893861063235 -0.12361861483579185" vasp_energy=-108.19337515 pbc="T T T"
      46       8.13714082      -8.12305464       4.07194061      -0.00082900      -0.00021200       0.00025000 
      46       2.03199637      -2.03304215       4.06983946      -0.01113900      -0.00057600      -0.00922400 
      46       4.06735377      -6.09344194       6.10618282      -0.00150600      -0.00051000       0.00127400 
      46       6.10271118     -10.15384172       8.14252618      -0.01070600      -0.00020400      -0.00863500 
      46       6.10178341      -4.06265485       2.03559725      -0.00105500      -0.00086000       0.00002300 
      46       6.10458932      -8.12400713       6.10443925      -0.00399700      -0.00747100       0.00055000 
      46       8.13477868      -4.06952638       8.13406955       0.00156900      -0.00010300       0.00064700 
      46       2.03480227      -6.09439443       8.13868146       0.00141500      -0.00002100      -0.00048700 
      46       2.03904256      -8.11808809       2.03846559       0.00046200       0.00009200      -0.00094900 
      46       4.06923191      -4.06360734       4.06809589       0.00185800       0.00079500      -0.00025900 
      47       4.06873491      -2.03422041       6.08733605       0.05390700      -0.01408700       0.01287400 
      47       6.11352051      -6.09697921       8.12603402      -0.00235500       0.00160300      -0.00154200 
      47       6.11776079      -8.12067287       2.02581815      -0.00268700       0.00167600      -0.00131500 
      47       8.14795015      -4.06619212       4.05544845      -0.00262000       0.00226200      -0.00140800 
      47       2.04797374      -6.09106017       4.06006036      -0.00196000       0.00234900      -0.00116000 
      47       4.06870560      -8.12416579       8.14060940       0.00112700       0.00016400       0.00060400 
      47       4.06777784      -2.03297891       2.03368048       0.00054600       0.00019400      -0.00063800 
      47       6.10313525      -6.09337870       4.07002384       0.00055100       0.00035200      -0.00046200 
      47       8.13849265     -10.15377849       6.10636719      -0.00046400       0.00048600      -0.00021500 
      47       2.03334820      -4.06376600       6.10426604      -0.00549100      -0.00656100       0.00062600 
      47       8.12825899     -10.15016225       2.05039852      -0.00287300      -0.00207700       0.00717200 
      47       2.02311453      -4.06014976       2.04829737       0.00230500      -0.00156700       0.00136900 