BEGIN_CFG
 Size
    1
 SuperCell
    2.045000       0.000000       2.045000
    2.045000       2.045000       0.000000
   -2.045000       2.045000       0.000000
   AtomData:  id type       cartes_x      cartes_y      cartes_z           fx          fy          fz
             1    0        0.00000000   0.00000000   0.00000000    -0.00000000     0.00000000     0.00000000
  Energy
        -2.7083959
 Stress:   xx          yy          zz          yz          xz          xy
            -0.40560847    -0.40560847    -0.40560847    -0.00000000    -0.00000000    -0.00000000
 Feature   conf_id  Ag
END_CFG

BEGIN_CFG
 Size
    1
 SuperCell
    2.475000       0.000000       2.475000
    2.475000       2.475000       0.000000
   -2.475000       2.475000       0.000000
   AtomData:  id type       cartes_x      cartes_y      cartes_z           fx          fy          fz
             1    1        0.00000000   0.00000000   0.00000000    -0.00000000     0.00000000     0.00000000
  Energy
        -3.52881174
 Stress:   xx          yy          zz          yz          xz          xy
             3.04503658     3.04503658     3.04503658     0.00000000    -0.00000000     0.00000000
 Feature   conf_id  Pd
END_CFG

BEGIN_CFG
 Size
    4
 SuperCell
    2.152500       2.152500       0.000000
   -4.305000       6.457500       6.457500
    0.000000      -2.152500       2.152500
   AtomData:  id type       cartes_x      cartes_y      cartes_z           fx          fy          fz
             1    0        0.00000000   0.00000000   0.00000000     0.18924700    -0.18924700    -0.18924700
             2    0        0.00000000   2.15250000   2.15250000     0.00000000     0.00000000     0.00000000
             3    0       -2.15250000   2.15250000   4.30500000    -0.18924700     0.18924700     0.18924700
             4    1       -2.15250000   4.30500000   6.45750000     0.00000000    -0.00000000     0.00000000
  Energy
        -13.01624435
 Stress:   xx          yy          zz          yz          xz          xy
             5.60184368     5.60184368     5.60184368     0.07070224    -0.07070224    -0.07070224
 Feature   conf_id  Ag3Pd
END_CFG

BEGIN_CFG
 Size
    4
 SuperCell
    2.260000       2.260000       0.000000
   -4.520000       6.780000       6.780000
    0.000000      -2.260000       2.260000
   AtomData:  id type       cartes_x      cartes_y      cartes_z           fx          fy          fz
             1    0        0.00000000   0.00000000   0.00000000     0.19162800    -0.19162800    -0.19162800
             2    0        0.00000000   2.26000000   2.26000000    -0.19162800     0.19162800     0.19162800
             3    1       -2.26000000   2.26000000   4.52000000    -0.06576700     0.06576700     0.06576700
             4    1       -2.26000000   4.52000000   6.78000000     0.06576700    -0.06576700    -0.06576700
  Energy
        -13.94085022
 Stress:   xx          yy          zz          yz          xz          xy
             9.61527421     9.61527421     9.61527421     0.07292523    -0.07292523    -0.07292523
 Feature   conf_id  Ag2Pd2
END_CFG

BEGIN_CFG
 Size
    4
 SuperCell
    2.367500       2.367500       0.000000
   -4.735000       7.102500       7.102500
    0.000000      -2.367500       2.367500
   AtomData:  id type       cartes_x      cartes_y      cartes_z           fx          fy          fz
             1    0        0.00000000   0.00000000   0.00000000     0.00000000    -0.00000000     0.00000000
             2    1        0.00000000   2.36750000   2.36750000    -0.07839900     0.07839900     0.07839900
             3    1       -2.36750000   2.36750000   4.73500000     0.00000000    -0.00000000     0.00000000
             4    1       -2.36750000   4.73500000   7.10250000     0.07839900    -0.07839900    -0.07839900
  Energy
        -14.23630877
 Stress:   xx          yy          zz          yz          xz          xy
             11.52710048     11.52710048     11.52710048     0.00665314    -0.00665314    -0.00665314
 Feature   conf_id  AgPd3
END_CFG

BEGIN_CFG
 Size
    4
 SuperCell
    2.152500       2.152500       0.000000
   -4.305000       4.305000       0.000000
    0.000000       0.000000       4.305000
   AtomData:  id type       cartes_x      cartes_y      cartes_z           fx          fy          fz
             1    0        0.00000000   0.00000000   0.00000000     0.17892900    -0.17892900     0.00000000
             2    0        0.00000000   2.15250000   2.15250000     0.00000000    -0.00000000     0.00000000
             3    0       -2.15250000   2.15250000   0.00000000    -0.17892900     0.17892900     0.00000000
             4    1       -2.15250000   4.30500000   2.15250000     0.00000000    -0.00000000     0.00000000
  Energy
        -13.0906775
 Stress:   xx          yy          zz          yz          xz          xy
             5.43862134     5.43862134     5.62973586     0.00000000    -0.00000000    -0.10094288
 Feature   conf_id  Ag3Pd
END_CFG

BEGIN_CFG
 Size
    4
 SuperCell
    2.260000       2.260000       0.000000
   -4.520000       4.520000       0.000000
    0.000000       0.000000       4.520000
   AtomData:  id type       cartes_x      cartes_y      cartes_z           fx          fy          fz
             1    0        0.00000000   0.00000000   0.00000000     0.16382800    -0.16382800     0.00000000
             2    0        0.00000000   2.26000000   2.26000000    -0.16382800     0.16382800     0.00000000
             3    1       -2.26000000   2.26000000   0.00000000    -0.11379300     0.11379300     0.00000000
             4    1       -2.26000000   4.52000000   2.26000000     0.11379300    -0.11379300     0.00000000
  Energy
        -14.07319914
 Stress:   xx          yy          zz          yz          xz          xy
             9.52855576     9.52855576     9.44360735    -0.00000000    -0.00000000    -0.17383461
 Feature   conf_id  Ag2Pd2
END_CFG

BEGIN_CFG
 Size
    4
 SuperCell
    2.367500       2.367500       0.000000
   -4.735000       4.735000       0.000000
    0.000000       0.000000       4.735000
   AtomData:  id type       cartes_x      cartes_y      cartes_z           fx          fy          fz
             1    0        0.00000000   0.00000000   0.00000000     0.00000000     0.00000000     0.00000000
             2    1        0.00000000   2.36750000   2.36750000    -0.12088900     0.12088900     0.00000000
             3    1       -2.36750000   2.36750000   0.00000000     0.00000000     0.00000000     0.00000000
             4    1       -2.36750000   4.73500000   2.36750000     0.12088900    -0.12088900     0.00000000
  Energy
        -14.28316132
 Stress:   xx          yy          zz          yz          xz          xy
             11.51798314     11.51798314     11.28742717     0.00000000    -0.00000000    -0.10788407
 Feature   conf_id  AgPd3
END_CFG

BEGIN_CFG
 Size
    4
 SuperCell
    2.152500       2.152500       0.000000
   -4.305000       2.152500       2.152500
    2.152500      -2.152500       4.305000
   AtomData:  id type       cartes_x      cartes_y      cartes_z           fx          fy          fz
             1    0        0.00000000   0.00000000   0.00000000     0.00963900    -0.00963900    -0.18889400
             2    0        0.00000000   2.15250000   2.15250000     0.00000000    -0.00000000    -0.00000000
             3    0        2.15250000   0.00000000   2.15250000    -0.00963900     0.00963900     0.18889400
             4    1        0.00000000   0.00000000   4.30500000     0.00000000    -0.00000000    -0.00000000
  Energy
        -13.09363292
 Stress:   xx          yy          zz          yz          xz          xy
             5.47777426     5.47777426     5.62472422     0.02773482    -0.02773482    -0.13470271
 Feature   conf_id  Ag3Pd
END_CFG

BEGIN_CFG
 Size
    4
 SuperCell
    2.260000       2.260000       0.000000
   -4.520000       2.260000       2.260000
    2.260000      -2.260000       4.520000
   AtomData:  id type       cartes_x      cartes_y      cartes_z           fx          fy          fz
             1    0        0.00000000   0.00000000   0.00000000     0.00737200    -0.00737200    -0.16067300
             2    0        0.00000000   2.26000000   2.26000000    -0.00737200     0.00737200     0.16067300
             3    1        2.26000000   0.00000000   2.26000000    -0.02061200     0.02061200     0.14871700
             4    1        0.00000000   0.00000000   4.52000000     0.02061200    -0.02061200    -0.14871700
  Energy
        -14.09459935
 Stress:   xx          yy          zz          yz          xz          xy
             9.42136044     9.42136044     9.57564038    -0.02968618     0.02968618    -0.13627400
 Feature   conf_id  Ag2Pd2
END_CFG

BEGIN_CFG
 Size
    4
 SuperCell
    2.367500       2.367500       0.000000
   -4.735000       2.367500       2.367500
    2.367500      -2.367500       4.735000
   AtomData:  id type       cartes_x      cartes_y      cartes_z           fx          fy          fz
             1    0        0.00000000   0.00000000   0.00000000     0.00000000     0.00000000     0.00000000
             2    1        0.00000000   2.36750000   2.36750000     0.00691700    -0.00691700     0.13465200
             3    1        2.36750000   0.00000000   2.36750000     0.00000000     0.00000000     0.00000000
             4    1        0.00000000   0.00000000   4.73500000    -0.00691700     0.00691700    -0.13465200
  Energy
        -14.29789985
 Stress:   xx          yy          zz          yz          xz          xy
             11.49646398     11.49646398     11.39488651    -0.05371277     0.05371277     0.04569601
 Feature   conf_id  AgPd3
END_CFG

BEGIN_CFG
 Size
    4
 SuperCell
    2.152500       2.152500       0.000000
   -2.152500       2.152500       0.000000
    0.000000       0.000000       8.610000
   AtomData:  id type       cartes_x      cartes_y      cartes_z           fx          fy          fz
             1    0        0.00000000   0.00000000   0.00000000    -0.00000000     0.00000000    -0.36903700
             2    0        0.00000000   2.15250000   2.15250000     0.00000000     0.00000000     0.00000000
             3    0        0.00000000   0.00000000   4.30500000    -0.00000000     0.00000000     0.36903700
             4    1        0.00000000   2.15250000   6.45750000    -0.00000000    -0.00000000     0.00000000
  Energy
        -13.03091938
 Stress:   xx          yy          zz          yz          xz          xy
             5.41325241     5.41325241     5.75741311     0.00000000    -0.00000000    -0.00000000
 Feature   conf_id  Ag3Pd
END_CFG

BEGIN_CFG
 Size
    2
 SuperCell
    2.260000       2.260000       0.000000
   -2.260000       2.260000       4.520000
    0.000000      -2.260000       2.260000
   AtomData:  id type       cartes_x      cartes_y      cartes_z           fx          fy          fz
             1    0        0.00000000   0.00000000   0.00000000     0.00000000     0.00000000    -0.00000000
             2    1        0.00000000   2.26000000   2.26000000    -0.00000000    -0.00000000     0.00000000
  Energy
        -7.0508879
 Stress:   xx          yy          zz          yz          xz          xy
             4.79541076     4.79541076     4.79541076     0.04862989    -0.04862989    -0.04862989
 Feature   conf_id  AgPd
END_CFG

BEGIN_CFG
 Size
    4
 SuperCell
    2.260000       2.260000       0.000000
   -2.260000       2.260000       0.000000
    0.000000       0.000000       9.040000
   AtomData:  id type       cartes_x      cartes_y      cartes_z           fx          fy          fz
             1    0        0.00000000   0.00000000   0.00000000     0.00000000    -0.00000000    -0.36383300
             2    0        0.00000000   2.26000000   2.26000000    -0.00000000     0.00000000     0.36383300
             3    1        0.00000000   0.00000000   4.52000000    -0.00000000     0.00000000     0.18543400
             4    1        0.00000000   2.26000000   6.78000000     0.00000000    -0.00000000    -0.18543400
  Energy
        -13.98646288
 Stress:   xx          yy          zz          yz          xz          xy
             9.53487340     9.53487340     9.71483661    -0.00000000    -0.00000000    -0.00000000
 Feature   conf_id  Ag2Pd2
END_CFG

BEGIN_CFG
 Size
    4
 SuperCell
    2.367500       2.367500       0.000000
   -2.367500       2.367500       0.000000
    0.000000       0.000000       9.470000
   AtomData:  id type       cartes_x      cartes_y      cartes_z           fx          fy          fz
             1    0        0.00000000   0.00000000   0.00000000     0.00000000    -0.00000000     0.00000000
             2    1        0.00000000   2.36750000   2.36750000     0.00000000     0.00000000     0.20899000
             3    1        0.00000000   0.00000000   4.73500000     0.00000000    -0.00000000     0.00000000
             4    1        0.00000000   2.36750000   7.10250000    -0.00000000    -0.00000000    -0.20899000
  Energy
        -14.2551507
 Stress:   xx          yy          zz          yz          xz          xy
             11.52370798     11.52370798     11.36024063     0.00000000    -0.00000000    -0.00000000
 Feature   conf_id  AgPd3
END_CFG

BEGIN_CFG
 Size
    4
 SuperCell
    0.000000       0.000000       4.305000
   -2.152500       4.305000       2.152500
   -4.305000       0.000000       0.000000
   AtomData:  id type       cartes_x      cartes_y      cartes_z           fx          fy          fz
             1    0        0.00000000   0.00000000   0.00000000     0.00000000     0.00000000     0.00000000
             2    0       -4.30500000   2.15250000   2.15250000     0.00000000     0.00000000    -0.00000000
             3    0       -2.15250000   0.00000000   2.15250000     0.00000000     0.00000000     0.00000000
             4    1       -2.15250000   2.15250000   4.30500000    -0.00000000     0.00000000    -0.00000000
  Energy
        -13.12977195
 Stress:   xx          yy          zz          yz          xz          xy
             5.39049039     5.65406152     5.39049039    -0.00000000    -0.00000000    -0.00000000
 Feature   conf_id  Ag3Pd
END_CFG

BEGIN_CFG
 Size
    4
 SuperCell
    0.000000       0.000000       4.520000
   -2.260000       4.520000       2.260000
   -4.520000       0.000000       0.000000
   AtomData:  id type       cartes_x      cartes_y      cartes_z           fx          fy          fz
             1    0        0.00000000   0.00000000   0.00000000     0.00000000     0.00000000     0.00000000
             2    0       -4.52000000   2.26000000   2.26000000     0.00000000     0.00000000    -0.00000000
             3    1       -2.26000000   0.00000000   2.26000000    -0.00000000     0.00000000    -0.00000000
             4    1       -2.26000000   2.26000000   4.52000000     0.00000000     0.00000000     0.00000000
  Energy
        -14.12697217
 Stress:   xx          yy          zz          yz          xz          xy
             9.40606288     9.50273302     9.40606288    -0.00000000    -0.00000000    -0.00000000
 Feature   conf_id  Ag2Pd2
END_CFG

BEGIN_CFG
 Size
    4
 SuperCell
    0.000000       0.000000       4.735000
   -2.367500       4.735000       2.367500
   -4.735000       0.000000       0.000000
   AtomData:  id type       cartes_x      cartes_y      cartes_z           fx          fy          fz
             1    0        0.00000000   0.00000000   0.00000000     0.00000000     0.00000000    -0.00000000
             2    1       -4.73500000   2.36750000   2.36750000     0.00000000     0.00000000     0.00000000
             3    1       -2.36750000   0.00000000   2.36750000     0.00000000     0.00000000    -0.00000000
             4    1       -2.36750000   2.36750000   4.73500000     0.00000000     0.00000000    -0.00000000
  Energy
        -14.304914
 Stress:   xx          yy          zz          yz          xz          xy
             11.51900222     11.25575237     11.51900222     0.00000000    -0.00000000    -0.00000000
 Feature   conf_id  AgPd3
END_CFG

BEGIN_CFG
 Size
    4
 SuperCell
    2.152500       2.152500       0.000000
   -2.152500       2.152500       4.305000
    2.152500      -2.152500       4.305000
   AtomData:  id type       cartes_x      cartes_y      cartes_z           fx          fy          fz
             1    0        0.00000000   0.00000000   0.00000000     0.00000000     0.00000000     0.00000000
             2    0        0.00000000   2.15250000   2.15250000    -0.00000000    -0.00000000    -0.00000000
             3    0        2.15250000   0.00000000   2.15250000     0.00000000     0.00000000     0.00000000
             4    1        0.00000000   0.00000000   4.30500000     0.00000000     0.00000000     0.00000000
  Energy
        -13.09675208
 Stress:   xx          yy          zz          yz          xz          xy
             5.42877883     5.42877883     5.70917909     0.00000000    -0.00000000    -0.14744594
 Feature   conf_id  Ag3Pd
END_CFG

BEGIN_CFG
 Size
    4
 SuperCell
    2.367500       2.367500       0.000000
   -2.367500       2.367500       4.735000
    2.367500      -2.367500       4.735000
   AtomData:  id type       cartes_x      cartes_y      cartes_z           fx          fy          fz
             1    0        0.00000000   0.00000000   0.00000000     0.00000000     0.00000000    -0.00000000
             2    1        0.00000000   2.36750000   2.36750000     0.00000000     0.00000000     0.00000000
             3    1        2.36750000   0.00000000   2.36750000    -0.00000000    -0.00000000    -0.00000000
             4    1        0.00000000   0.00000000   4.73500000     0.00000000     0.00000000    -0.00000000
  Energy
        -14.30773333
 Stress:   xx          yy          zz          yz          xz          xy
             11.54975335     11.54975335     11.38962218    -0.00000000    -0.00000000    -0.04698543
 Feature   conf_id  AgPd3
END_CFG

BEGIN_CFG
 Size
    4
 SuperCell
    0.000000       4.305000       0.000000
   -4.305000       0.000000       0.000000
    0.000000       0.000000       4.305000
   AtomData:  id type       cartes_x      cartes_y      cartes_z           fx          fy          fz
             1    0        0.00000000   0.00000000   0.00000000     0.00000000     0.00000000     0.00000000
             2    0        0.00000000   2.15250000   2.15250000     0.00000000     0.00000000     0.00000000
             3    0       -2.15250000   0.00000000   2.15250000     0.00000000     0.00000000     0.00000000
             4    1       -2.15250000   2.15250000   0.00000000     0.00000000     0.00000000     0.00000000
  Energy
        -13.13818824
 Stress:   xx          yy          zz          yz          xz          xy
             5.47143801     5.47143801     5.47143801    -0.00000000    -0.00000000    -0.00000000
 Feature   conf_id  Ag3Pd
END_CFG

BEGIN_CFG
 Size
    4
 SuperCell
    0.000000       4.735000       0.000000
   -4.735000       0.000000       0.000000
    0.000000       0.000000       4.735000
   AtomData:  id type       cartes_x      cartes_y      cartes_z           fx          fy          fz
             1    0        0.00000000   0.00000000   0.00000000     0.00000000     0.00000000     0.00000000
             2    1        0.00000000   2.36750000   2.36750000     0.00000000     0.00000000     0.00000000
             3    1       -2.36750000   0.00000000   2.36750000     0.00000000     0.00000000     0.00000000
             4    1       -2.36750000   2.36750000   0.00000000     0.00000000     0.00000000     0.00000000
  Energy
        -14.29921808
 Stress:   xx          yy          zz          yz          xz          xy
             11.45691090     11.45691090     11.45691090    -0.00000000    -0.00000000    -0.00000000
 Feature   conf_id  AgPd3
END_CFG

BEGIN_CFG
 Size
    2
 SuperCell
    2.260000       2.260000       0.000000
   -2.260000       2.260000       0.000000
    0.000000       0.000000       4.520000
   AtomData:  id type       cartes_x      cartes_y      cartes_z           fx          fy          fz
             1    0        0.00000000   0.00000000   0.00000000    -0.00000000     0.00000000     0.00000000
             2    1        0.00000000   2.26000000   2.26000000     0.00000000    -0.00000000     0.00000000
  Energy
        -7.03740609
 Stress:   xx          yy          zz          yz          xz          xy
             4.69509591     4.69509591     4.74110214     0.00000000     0.00000000    -0.00000000
 Feature   conf_id  AgPd
END_CFG

BEGIN_CFG
 Size
    3
 SuperCell
    2.188330       2.188330       0.000000
   -4.376670       4.376670       4.376670
    0.000000      -2.188330       2.188330
   AtomData:  id type       cartes_x      cartes_y      cartes_z           fx          fy          fz
             1    0        0.00000000   0.00000000   0.00000000     0.17094700    -0.17094700    -0.17094700
             2    0        0.00000000   2.18833000   2.18833000    -0.17094700     0.17094700     0.17094700
             3    1       -2.18833000   2.18833000   4.37667000    -0.00000000     0.00000000     0.00000000
  Energy
        -10.10854497
 Stress:   xx          yy          zz          yz          xz          xy
             5.43499265     5.43499265     5.43499265     0.06771034    -0.06771034    -0.06771034
 Feature   conf_id  Ag2Pd
END_CFG

BEGIN_CFG
 Size
    3
 SuperCell
    2.331670       2.331670       0.000000
   -4.663330       4.663330       4.663330
    0.000000      -2.331670       2.331670
   AtomData:  id type       cartes_x      cartes_y      cartes_z           fx          fy          fz
             1    0        0.00000000   0.00000000   0.00000000     0.00000000    -0.00000000     0.00000000
             2    1       -0.00000000   2.33167000   2.33167000    -0.07377100     0.07377100     0.07377100
             3    1       -2.33167000   2.33167000   4.66333000     0.07377100    -0.07377100    -0.07377100
  Energy
        -10.67975617
 Stress:   xx          yy          zz          yz          xz          xy
             8.28308206     8.28308206     8.28308206     0.02533697    -0.02533697    -0.02533697
 Feature   conf_id  AgPd2
END_CFG

BEGIN_CFG
 Size
    1
 SuperCell
    1.623120      -1.623120       1.623120
    1.623120       1.623120       1.623120
   -1.623120       1.623120       1.623120
   AtomData:  id type       cartes_x      cartes_y      cartes_z           fx          fy          fz
             1    0        0.00000000   0.00000000   0.00000000     0.00000000    -0.00000000     0.00000000
  Energy
        -2.67687644
 Stress:   xx          yy          zz          yz          xz          xy
            -0.48128481    -0.48128481    -0.48128481    -0.00000000     0.00000000    -0.00000000
 Feature   conf_id  Ag
END_CFG

BEGIN_CFG
 Size
    1
 SuperCell
    1.964410      -1.964410       1.964410
    1.964410       1.964410       1.964410
   -1.964410       1.964410       1.964410
   AtomData:  id type       cartes_x      cartes_y      cartes_z           fx          fy          fz
             1    1        0.00000000   0.00000000   0.00000000     0.00000000    -0.00000000     0.00000000
  Energy
        -3.53136629
 Stress:   xx          yy          zz          yz          xz          xy
             3.03283694     3.03283694     3.03283694    -0.00000000    -0.00000000     0.00000000
 Feature   conf_id  Pd
END_CFG

BEGIN_CFG
 Size
    3
 SuperCell
    2.188330       2.188330       0.000000
   -2.188330       4.376670       2.188330
    0.000000       0.000000       4.376670
   AtomData:  id type       cartes_x      cartes_y      cartes_z           fx          fy          fz
             1    0        0.00000000   0.00000000   0.00000000     0.08864300    -0.08864400     0.00000000
             2    0        0.00000000   2.18833000   2.18833000    -0.08864300     0.08864400    -0.00000000
             3    1        0.00000000   4.37667000   4.37667000    -0.00000000    -0.00000000     0.00000000
  Energy
        -10.16800911
 Stress:   xx          yy          zz          yz          xz          xy
             5.32964580     5.32966228     5.36329263    -0.00000392     0.00000392    -0.05925635
 Feature   conf_id  Ag2Pd
END_CFG

BEGIN_CFG
 Size
    2
 SuperCell
    1.793760       1.793760      -1.793760
    0.000000       3.587530       3.587530
    1.793760      -1.793760       1.793760
   AtomData:  id type       cartes_x      cartes_y      cartes_z           fx          fy          fz
             1    0        0.00000000   0.00000000   0.00000000     0.00000000     0.00000000    -0.00000000
             2    1        1.79376000   1.79376000   1.79376000    -0.00000000    -0.00000000     0.00000000
  Energy
        -7.00690292
 Stress:   xx          yy          zz          yz          xz          xy
             4.69256636     4.64444986     4.64444986     0.07456397    -0.00000000     0.00000000
 Feature   conf_id  AgPd
END_CFG

BEGIN_CFG
 Size
    2
 SuperCell
    0.000000       3.587530       0.000000
   -3.587530       0.000000       0.000000
    0.000000       0.000000       3.587530
   AtomData:  id type       cartes_x      cartes_y      cartes_z           fx          fy          fz
             1    0        0.00000000   0.00000000   0.00000000     0.00000000     0.00000000     0.00000000
             2    1       -1.79376000   1.79376000   1.79376000     0.00000000     0.00000000     0.00000000
  Energy
        -7.03340909
 Stress:   xx          yy          zz          yz          xz          xy
             4.59023930     4.59023930     4.59023930    -0.00000000     0.00000000     0.00000000
 Feature   conf_id  AgPd
END_CFG

BEGIN_CFG
 Size
    3
 SuperCell
    1.736880       1.736880      -1.736880
    1.736880       5.210640       5.210640
    1.736880      -1.736880       1.736880
   AtomData:  id type       cartes_x      cartes_y      cartes_z           fx          fy          fz
             1    0        0.00000000   0.00000000   0.00000000    -0.00000000    -0.21414400    -0.21414400
             2    0        1.73688000   1.73688000   1.73688000     0.00000000     0.21414400     0.21414400
             3    1        3.47376000   3.47376000   3.47376000    -0.00000000    -0.00000000    -0.00000000
  Energy
        -10.03918441
 Stress:   xx          yy          zz          yz          xz          xy
             5.20733339     5.23846341     5.23846341     0.12552514     0.00000000     0.00000000
 Feature   conf_id  Ag2Pd
END_CFG

BEGIN_CFG
 Size
    3
 SuperCell
    1.850650       1.850650      -1.850650
    1.850650       5.551930       5.551930
    1.850650      -1.850650       1.850650
   AtomData:  id type       cartes_x      cartes_y      cartes_z           fx          fy          fz
             1    0        0.00000000   0.00000000   0.00000000     0.00000000     0.00000000     0.00000000
             2    1        1.85064000   1.85064000   1.85064000    -0.00000000     0.10200400     0.10200400
             3    1        3.70129000   3.70129000   3.70129000    -0.00000000    -0.10200400    -0.10200400
  Energy
        -10.63825068
 Stress:   xx          yy          zz          yz          xz          xy
             8.05968331     8.14547467     8.14547467     0.02154587    -0.00000000    -0.00000000
 Feature   conf_id  AgPd2
END_CFG

BEGIN_CFG
 Size
    3
 SuperCell
    1.736880       1.736880      -1.736880
   -3.473760       3.473760       0.000000
    0.000000       3.473760       3.473760
   AtomData:  id type       cartes_x      cartes_y      cartes_z           fx          fy          fz
             1    0        0.00000000   0.00000000   0.00000000     0.01369200     0.01369200    -0.01369200
             2    0       -0.00000000   3.47376000   0.00000000    -0.01369200    -0.01369200     0.01369200
             3    1       -1.73688000   5.21064000   1.73688000     0.00000000    -0.00000000    -0.00000000
  Energy
        -10.09630836
 Stress:   xx          yy          zz          yz          xz          xy
             5.14713801     5.14713801     5.14713801     0.06159524     0.06159524    -0.06159524
 Feature   conf_id  Ag2Pd
END_CFG

BEGIN_CFG
 Size
    3
 SuperCell
    1.850650       1.850650      -1.850650
   -3.701290       3.701290       0.000000
    0.000000       3.701290       3.701290
   AtomData:  id type       cartes_x      cartes_y      cartes_z           fx          fy          fz
             1    0        0.00000000   0.00000000   0.00000000     0.00000000    -0.00000000     0.00000000
             2    1       -0.00000000   3.70129000   0.00000000    -0.04051900    -0.04051900     0.04051900
             3    1       -1.85064000   5.55193000   1.85064000     0.04051900     0.04051900    -0.04051900
  Energy
        -10.6619055
 Stress:   xx          yy          zz          yz          xz          xy
             8.03067453     8.03067453     8.03067453    -0.01117738    -0.01117738     0.01117738
 Feature   conf_id  AgPd2
END_CFG

BEGIN_CFG
 Size
    3
 SuperCell
    0.000000       3.473760       0.000000
   -5.210640       1.736880       1.736880
    0.000000       0.000000       3.473760
   AtomData:  id type       cartes_x      cartes_y      cartes_z           fx          fy          fz
             1    0        0.00000000   0.00000000   0.00000000     0.25304000    -0.00000000    -0.00000000
             2    0       -1.73688000   1.73688000   1.73688000    -0.25304000     0.00000000     0.00000000
             3    1       -3.47376000   3.47376000   3.47376000     0.00000000     0.00000000     0.00000000
  Energy
        -10.11846462
 Stress:   xx          yy          zz          yz          xz          xy
             5.24175172     5.12107211     5.12107211    -0.00000000    -0.00000000    -0.00000000
 Feature   conf_id  Ag2Pd
END_CFG

BEGIN_CFG
 Size
    3
 SuperCell
    0.000000       3.701290       0.000000
   -5.551930       1.850650       1.850650
    0.000000       0.000000       3.701290