  32
   1   1
     6.855872965491067     0.011475806648314     0.033386484485998
     0.021215459477308     7.141040172633454     0.019443270213697
     0.028966624623011     0.054085997890195     6.906040544903155
   1   2
    -0.037350294662237     0.004320505484608    -0.000730401794724
     0.004346197053760    -0.028944713182360    -0.000430280055320
    -0.001256349104360    -0.001281033918602    -0.205376414157158
   1   3
    -0.016939533020268     0.052302961019424     0.014522043699451
     0.051776301424986    -0.065035568404679    -0.068110534634232
     0.014949461398671    -0.069471265524642    -0.016653618504425
   1   4
    -0.013450717912254     0.051625750767689    -0.015307875851635
     0.051317069508821    -0.068120882175986     0.063206552040418
    -0.015464805899487     0.062403052762483    -0.018503580810987
   1   5
     0.002868832522972     0.007217078506934    -0.002240700494873
    -0.009486772025266     0.044578806189291     0.000046898552828
    -0.003085843540931     0.000995166848156     0.092897920370871
   1   6
     0.002993069360057    -0.008508560828100    -0.003317799823421
     0.006560553653277     0.044367522198040     0.002166758628083
    -0.002178680885429    -0.000998270055339     0.092770313045856
   1   7
    -0.016435814210371    -0.055972336561970    -0.035517985588807
    -0.052902408418558    -0.066591524261694    -0.005211602673883
     0.033317796619974     0.000878756774056    -0.017448206476459
   1   8
    -0.016073256129400    -0.052753386924383     0.032707662331616
    -0.055827353238874    -0.066785675017972     0.002020596563677
    -0.035827403270463    -0.006230089849415    -0.017455019835993
   1   9
    -0.048206834586296    -0.000953653188337    -0.031980819225741
    -0.001046759219265    -0.031147798186272    -0.011120113261268
    -0.044115732773739     0.009064896788667     0.004402503875168
   1  10
    -0.049440528793017    -0.000776457089234     0.030952226128160
    -0.001946243966608    -0.028008418284560     0.004941992476944
     0.042405475018588    -0.016157947876524     0.000994135380022
   1  11
     0.018509298436644     0.002387785127353    -0.001098323276960
    -0.037008236629247    -0.032136852800302     0.000295481786661
    -0.000864906767927    -0.002971731124601    -0.059424616642040
   1  12
    -0.767969063441044    -1.010488418417136    -0.001344761951683
    -0.873731401381710    -0.870906653719005     0.007728717968942
    -0.001351253763634     0.001134363909743     0.030046868022444
   1  13
     0.024997297652824     0.001014844479793    -0.000956260397095
     0.002022970640083    -0.865119774859542    -0.860295212158024
    -0.003183762154020    -0.983565463865553    -0.754583322479815
   1  14
     0.019534947239952    -0.001586345663648    -0.002221707396500
    -0.003564709720400    -0.866324409571390     0.862051437307496
     0.000325578022163     0.986354353370748    -0.757031308521399
   1  15
    -0.768290539139046     1.001106736717889     0.000857584590340
     0.868525147103090    -0.885974954594479    -0.001339323049441
    -0.001536096290605    -0.003280369758287     0.035592390586112
   1  16
     0.017373436749961     0.005609365878219    -0.001911051480638
     0.039671765783059    -0.018759993924544    -0.002502602240406
     0.001181313396849    -0.001891248725053    -0.064850385408144
   1  17
    -0.922684344315755     0.104710338262211    -0.984200454418266
     0.104003038475999     0.143262146604136    -0.067298727956393
    -0.983542656609905    -0.068758469981505    -0.925071744598803
   1  18
    -0.917275701310659     0.104031724607005     0.977682762851938
     0.103589344098837     0.145117053551441     0.063067087194399
     0.977602697940222     0.061916011739813    -0.922958383892847
   1  19
     0.007138033803022    -0.015136913854501     0.001459816268602
    -0.016073179546008     0.025191189397841    -0.001376995448102
     0.001666072563274    -0.002496790556169     0.059024420564488
   1  20
     0.030293944461960     0.016341368828146    -0.001357285585442
     0.015695397197890    -0.046653582178135     0.002800537600237
    -0.001160794495526     0.001697134580088    -0.074100803013492
   1  21
    -0.924573288607209    -0.107862067766333    -0.967054319065652
    -0.107367433076886     0.149981721920180     0.072251611180996
    -0.966499033290807     0.070745039827218    -0.926360958570329
   1  22
    -0.915084277512089    -0.104966382496805     0.969346461313248
    -0.105081433053527     0.141809696309652    -0.074780482682881
     0.969390218150968    -0.075928163873520    -0.923981853914449
   1  23
     0.120703269986438    -0.073308282460784    -0.000058086166530
    -0.072543815891450     0.193531524784716     0.000427410609868
    -0.000229583098371    -0.000520158902706     0.148059888039048
   1  24
     0.034755088200337     0.073537599054539    -0.003268173263299
     0.073606887997235     0.061274387059295    -0.002003318365926
    -0.002832321207530    -0.003259766641850     0.052229941231616
   1  25
    -0.958870979754387     1.182834613311676     0.000117400117480
     1.175347466552109    -1.046916860469897    -0.002230800006849
    -0.000178587527086    -0.003995121590806     0.159492113100914
   1  26
    -0.015399862529965     0.028605708048782    -0.000796337439259
     0.017258736199488     0.007323111522388    -0.000495970074954
    -0.001872652827546    -0.002488082623901    -0.050968392730810
   1  27
     0.160811744671637     0.000687502659781     0.000146151603601
     0.000409642310891    -1.046190719960451    -1.167132287135159
     0.006430440983891    -1.190488996724821    -0.950982286542410
   1  28
     0.161221135015601    -0.001424535029819    -0.002932823802334
    -0.001684828434008    -1.048112633487979     1.171068088934559
    -0.009086980114574     1.193449545277067    -0.954606436418791
   1  29
    -0.012028754796418    -0.021888601263085    -0.001717084720645
    -0.024386733398808    -0.000424843271076    -0.000629579249152
    -0.000860280550580    -0.000885572684853    -0.053702385610290
   1  30
    -0.960615871173282    -1.191264817058187    -0.001087988812643
    -1.171122154362885    -1.039770669845113    -0.001848309282572
    -0.000495852250947    -0.001074632127286     0.162514971873078
   1  31
    -0.048006965223006    -0.000580331817502    -0.039154647948082
    -0.000064670254661     0.012107663023018    -0.016590136606779
    -0.055425992599109    -0.006173293943254    -0.025304742772800
   1  32
    -0.048375877407645    -0.000336921653725     0.037078531635169
    -0.001506448526721     0.012341826207656     0.011877627569981
     0.054813889944780    -0.000807849446179    -0.024701549424217
   2   1
    -0.037350294662237     0.004320505484608    -0.000730401794724
     0.004346197053760    -0.028944713182360    -0.000430280055320
    -0.001256349104360    -0.001281033918602    -0.205376414157158
   2   2
     6.855872965491070     0.011475806648314     0.033386484485999
     0.021215459477307     7.141040172633454     0.019443270213697
     0.028966624623012     0.054085997890195     6.906040544903155
   2   3
    -0.013450717912254     0.051625750767689    -0.015307875851635
     0.051317069508821    -0.068120882175986     0.063206552040418
    -0.015464805899487     0.062403052762483    -0.018503580810987
   2   4
    -0.016939533020268     0.052302961019424     0.014522043699451
     0.051776301424986    -0.065035568404679    -0.068110534634232
     0.014949461398671    -0.069471265524642    -0.016653618504425
   2   5
     0.002993069360057    -0.008508560828100    -0.003317799823421
     0.006560553653277     0.044367522198040     0.002166758628083
    -0.002178680885429    -0.000998270055339     0.092770313045856
   2   6
     0.002868832522972     0.007217078506934    -0.002240700494873
    -0.009486772025266     0.044578806189291     0.000046898552828
    -0.003085843540931     0.000995166848156     0.092897920370871
   2   7
    -0.016073256129400    -0.052753386924383     0.032707662331616
    -0.055827353238874    -0.066785675017972     0.002020596563677
    -0.035827403270463    -0.006230089849415    -0.017455019835993
   2   8
    -0.016435814210371    -0.055972336561970    -0.035517985588807
    -0.052902408418558    -0.066591524261694    -0.005211602673883
     0.033317796619974     0.000878756774055    -0.017448206476459
   2   9
    -0.049440528793017    -0.000776457089234     0.030952226128160
    -0.001946243966608    -0.028008418284560     0.004941992476944
     0.042405475018588    -0.016157947876524     0.000994135380022
   2  10
    -0.048206834586296    -0.000953653188337    -0.031980819225741
    -0.001046759219265    -0.031147798186272    -0.011120113261268
    -0.044115732773739     0.009064896788667     0.004402503875168
   2  11
    -0.767969063441044    -1.010488418417136    -0.001344761951683
    -0.873731401381710    -0.870906653719004     0.007728717968942
    -0.001351253763634     0.001134363909743     0.030046868022444
   2  12
     0.018509298436644     0.002387785127353    -0.001098323276960
    -0.037008236629247    -0.032136852800302     0.000295481786661
    -0.000864906767927    -0.002971731124601    -0.059424616642040
   2  13
     0.019534947239952    -0.001586345663648    -0.002221707396500
    -0.003564709720400    -0.866324409571390     0.862051437307496
     0.000325578022163     0.986354353370748    -0.757031308521399
   2  14
     0.024997297652824     0.001014844479793    -0.000956260397095
     0.002022970640083    -0.865119774859542    -0.860295212158024
    -0.003183762154020    -0.983565463865553    -0.754583322479815
   2  15
     0.017373436749961     0.005609365878219    -0.001911051480638
     0.039671765783059    -0.018759993924544    -0.002502602240406
     0.001181313396849    -0.001891248725053    -0.064850385408144
   2  16
    -0.768290539139046     1.001106736717890     0.000857584590340
     0.868525147103090    -0.885974954594479    -0.001339323049441
    -0.001536096290605    -0.003280369758287     0.035592390586112
   2  17
    -0.917275701310660     0.104031724607005     0.977682762851938
     0.103589344098837     0.145117053551441     0.063067087194399
     0.977602697940222     0.061916011739813    -0.922958383892847
   2  18
    -0.922684344315755     0.104710338262211    -0.984200454418266
     0.104003038475999     0.143262146604136    -0.067298727956393
    -0.983542656609905    -0.068758469981505    -0.925071744598803
   2  19
     0.030293944461960     0.016341368828146    -0.001357285585442
     0.015695397197890    -0.046653582178135     0.002800537600237
    -0.001160794495526     0.001697134580088    -0.074100803013492
   2  20
     0.007138033803022    -0.015136913854501     0.001459816268602
    -0.016073179546008     0.025191189397841    -0.001376995448102
     0.001666072563274    -0.002496790556169     0.059024420564488
   2  21
    -0.915084277512089    -0.104966382496805     0.969346461313248
    -0.105081433053527     0.141809696309652    -0.074780482682881
     0.969390218150968    -0.075928163873520    -0.923981853914449
   2  22
    -0.924573288607209    -0.107862067766333    -0.967054319065652
    -0.107367433076886     0.149981721920180     0.072251611180996
    -0.966499033290808     0.070745039827218    -0.926360958570329
   2  23
     0.034755088200337     0.073537599054539    -0.003268173263299
     0.073606887997235     0.061274387059295    -0.002003318365926
    -0.002832321207530    -0.003259766641850     0.052229941231616
   2  24
     0.120703269986438    -0.073308282460784    -0.000058086166530
    -0.072543815891450     0.193531524784716     0.000427410609868
    -0.000229583098371    -0.000520158902706     0.148059888039048
   2  25
    -0.015399862529965     0.028605708048782    -0.000796337439259
     0.017258736199488     0.007323111522388    -0.000495970074954
    -0.001872652827546    -0.002488082623901    -0.050968392730810
   2  26
    -0.958870979754387     1.182834613311676     0.000117400117480
     1.175347466552109    -1.046916860469897    -0.002230800006849
    -0.000178587527086    -0.003995121590806     0.159492113100914
   2  27
     0.161221135015601    -0.001424535029819    -0.002932823802334
    -0.001684828434008    -1.048112633487979     1.171068088934559
    -0.009086980114574     1.193449545277067    -0.954606436418791
   2  28
     0.160811744671637     0.000687502659781     0.000146151603601
     0.000409642310891    -1.046190719960451    -1.167132287135159
     0.006430440983891    -1.190488996724821    -0.950982286542410
   2  29
    -0.960615871173283    -1.191264817058187    -0.001087988812643
    -1.171122154362885    -1.039770669845113    -0.001848309282572
    -0.000495852250947    -0.001074632127286     0.162514971873078
   2  30
    -0.012028754796418    -0.021888601263085    -0.001717084720645
    -0.024386733398808    -0.000424843271076    -0.000629579249152
    -0.000860280550580    -0.000885572684853    -0.053702385610290
   2  31
    -0.048375877407645    -0.000336921653725     0.037078531635169
    -0.001506448526721     0.012341826207656     0.011877627569981
     0.054813889944780    -0.000807849446179    -0.024701549424217
   2  32
    -0.048006965223006    -0.000580331817502    -0.039154647948082
    -0.000064670254661     0.012107663023018    -0.016590136606779
    -0.055425992599109    -0.006173293943254    -0.025304742772800
   3   1
    -0.016939533020268     0.052302961019424     0.014522043699451
     0.051776301424986    -0.065035568404679    -0.068110534634232
     0.014949461398671    -0.069471265524642    -0.016653618504425
   3   2
    -0.013450717912254     0.051625750767689    -0.015307875851635
     0.051317069508821    -0.068120882175986     0.063206552040418
    -0.015464805899487     0.062403052762483    -0.018503580810987
   3   3
     6.855872965491070     0.011475806648314     0.033386484485999
     0.021215459477307     7.141040172633454     0.019443270213697
     0.028966624623012     0.054085997890195     6.906040544903155
   3   4
    -0.037350294662237     0.004320505484608    -0.000730401794724
     0.004346197053760    -0.028944713182360    -0.000430280055320
    -0.001256349104360    -0.001281033918602    -0.205376414157158
   3   5
    -0.016435814210371    -0.055972336561970    -0.035517985588807
    -0.052902408418558    -0.066591524261694    -0.005211602673883
     0.033317796619974     0.000878756774055    -0.017448206476459
   3   6
    -0.016073256129400    -0.052753386924383     0.032707662331616
    -0.055827353238874    -0.066785675017972     0.002020596563677
    -0.035827403270463    -0.006230089849415    -0.017455019835993
   3   7
     0.002868832522972     0.007217078506934    -0.002240700494873
    -0.009486772025266     0.044578806189291     0.000046898552828
    -0.003085843540931     0.000995166848156     0.092897920370871
   3   8
     0.002993069360057    -0.008508560828100    -0.003317799823421
     0.006560553653277     0.044367522198040     0.002166758628083
    -0.002178680885429    -0.000998270055339     0.092770313045856
   3   9
     0.018509298436644     0.002387785127353    -0.001098323276960
    -0.037008236629247    -0.032136852800302     0.000295481786661
    -0.000864906767927    -0.002971731124601    -0.059424616642040
   3  10
    -0.767969063441044    -1.010488418417136    -0.001344761951683
    -0.873731401381710    -0.870906653719004     0.007728717968942
    -0.001351253763634     0.001134363909743     0.030046868022444
   3  11
    -0.048206834586296    -0.000953653188337    -0.031980819225741
    -0.001046759219265    -0.031147798186272    -0.011120113261268
    -0.044115732773739     0.009064896788667     0.004402503875168
   3  12
    -0.049440528793017    -0.000776457089234     0.030952226128160
    -0.001946243966608    -0.028008418284560     0.004941992476944
     0.042405475018588    -0.016157947876524     0.000994135380022
   3  13
    -0.768290539139046     1.001106736717890     0.000857584590340
     0.868525147103090    -0.885974954594479    -0.001339323049441
    -0.001536096290605    -0.003280369758287     0.035592390586112
   3  14
     0.017373436749961     0.005609365878219    -0.001911051480638
     0.039671765783059    -0.018759993924544    -0.002502602240406
     0.001181313396849    -0.001891248725053    -0.064850385408144
   3  15
     0.024997297652824     0.001014844479793    -0.000956260397095
     0.002022970640083    -0.865119774859542    -0.860295212158024
    -0.003183762154020    -0.983565463865553    -0.754583322479815
   3  16
     0.019534947239952    -0.001586345663648    -0.002221707396500
    -0.003564709720400    -0.866324409571390     0.862051437307496
     0.000325578022163     0.986354353370748    -0.757031308521399
   3  17
     0.007138033803022    -0.015136913854501     0.001459816268602
    -0.016073179546008     0.025191189397841    -0.001376995448102
     0.001666072563274    -0.002496790556169     0.059024420564488
   3  18
     0.030293944461960     0.016341368828146    -0.001357285585442
     0.015695397197890    -0.046653582178135     0.002800537600237
    -0.001160794495526     0.001697134580088    -0.074100803013492
   3  19
    -0.922684344315755     0.104710338262211    -0.984200454418266
     0.104003038475999     0.143262146604136    -0.067298727956393
    -0.983542656609905    -0.068758469981505    -0.925071744598803
   3  20
    -0.917275701310660     0.104031724607005     0.977682762851938
     0.103589344098837     0.145117053551441     0.063067087194399
     0.977602697940222     0.061916011739813    -0.922958383892847
   3  21
     0.120703269986438    -0.073308282460784    -0.000058086166530
    -0.072543815891450     0.193531524784716     0.000427410609868
    -0.000229583098371    -0.000520158902706     0.148059888039048
   3  22
     0.034755088200337     0.073537599054539    -0.003268173263299
     0.073606887997235     0.061274387059295    -0.002003318365926
    -0.002832321207530    -0.003259766641850     0.052229941231616
   3  23
    -0.924573288607209    -0.107862067766333    -0.967054319065652
    -0.107367433076886     0.149981721920180     0.072251611180996
    -0.966499033290808     0.070745039827218    -0.926360958570329
   3  24
    -0.915084277512089    -0.104966382496805     0.969346461313248
    -0.105081433053527     0.141809696309652    -0.074780482682881
     0.969390218150968    -0.075928163873520    -0.923981853914449
   3  25
     0.160811744671637     0.000687502659781     0.000146151603601
     0.000409642310891    -1.046190719960451    -1.167132287135159
     0.006430440983891    -1.190488996724821    -0.950982286542410
   3  26
     0.161221135015601    -0.001424535029819    -0.002932823802334
    -0.001684828434008    -1.048112633487979     1.171068088934559
    -0.009086980114574     1.193449545277067    -0.954606436418791
   3  27
    -0.958870979754387     1.182834613311676     0.000117400117480
     1.175347466552109    -1.046916860469897    -0.002230800006849
    -0.000178587527086    -0.003995121590806     0.159492113100914
   3  28
    -0.015399862529965     0.028605708048782    -0.000796337439259
     0.017258736199488     0.007323111522388    -0.000495970074954
    -0.001872652827546    -0.002488082623901    -0.050968392730810
   3  29
    -0.048006965223006    -0.000580331817502    -0.039154647948082
    -0.000064670254661     0.012107663023018    -0.016590136606779
    -0.055425992599109    -0.006173293943254    -0.025304742772800
   3  30
    -0.048375877407645    -0.000336921653725     0.037078531635169
    -0.001506448526721     0.012341826207656     0.011877627569981
     0.054813889944780    -0.000807849446179    -0.024701549424217
   3  31
    -0.012028754796418    -0.021888601263085    -0.001717084720645
    -0.024386733398808    -0.000424843271076    -0.000629579249152
    -0.000860280550580    -0.000885572684853    -0.053702385610290
   3  32
    -0.960615871173283    -1.191264817058187    -0.001087988812643
    -1.171122154362885    -1.039770669845113    -0.001848309282572
    -0.000495852250947    -0.001074632127286     0.162514971873078
   4   1
    -0.013450717912254     0.051625750767689    -0.015307875851635
     0.051317069508821    -0.068120882175986     0.063206552040418
    -0.015464805899487     0.062403052762483    -0.018503580810987
   4   2
    -0.016939533020268     0.052302961019424     0.014522043699451
     0.051776301424986    -0.065035568404679    -0.068110534634232
     0.014949461398671    -0.069471265524642    -0.016653618504425
   4   3
    -0.037350294662237     0.004320505484608    -0.000730401794724
     0.004346197053760    -0.028944713182360    -0.000430280055320
    -0.001256349104360    -0.001281033918602    -0.205376414157158
   4   4
     6.855872965491070     0.011475806648314     0.033386484485999
     0.021215459477307     7.141040172633454     0.019443270213697
     0.028966624623012     0.054085997890195     6.906040544903155
   4   5
    -0.016073256129400    -0.052753386924383     0.032707662331616
    -0.055827353238874    -0.066785675017972     0.002020596563677
    -0.035827403270463    -0.006230089849415    -0.017455019835993
   4   6
    -0.016435814210371    -0.055972336561970    -0.035517985588807
    -0.052902408418558    -0.066591524261694    -0.005211602673883
     0.033317796619974     0.000878756774055    -0.017448206476459
   4   7
     0.002993069360057    -0.008508560828100    -0.003317799823421
     0.006560553653277     0.044367522198040     0.002166758628083
    -0.002178680885429    -0.000998270055339     0.092770313045856
   4   8
     0.002868832522972     0.007217078506934    -0.002240700494873
    -0.009486772025266     0.044578806189291     0.000046898552828
    -0.003085843540931     0.000995166848156     0.092897920370871
   4   9
    -0.767969063441044    -1.010488418417136    -0.001344761951683
    -0.873731401381710    -0.870906653719004     0.007728717968942
    -0.001351253763634     0.001134363909743     0.030046868022444
   4  10
     0.018509298436644     0.002387785127353    -0.001098323276960
    -0.037008236629247    -0.032136852800302     0.000295481786661
    -0.000864906767927    -0.002971731124601    -0.059424616642040
   4  11
    -0.049440528793017    -0.000776457089234     0.030952226128160
    -0.001946243966608    -0.028008418284560     0.004941992476944
     0.042405475018588    -0.016157947876524     0.000994135380022
   4  12
    -0.048206834586296    -0.000953653188337    -0.031980819225741
    -0.001046759219265    -0.031147798186272    -0.011120113261268
    -0.044115732773739     0.009064896788667     0.004402503875168
   4  13
     0.017373436749961     0.005609365878219    -0.001911051480638
     0.039671765783059    -0.018759993924544    -0.002502602240406
     0.001181313396849    -0.001891248725053    -0.064850385408144
   4  14
    -0.768290539139046     1.001106736717890     0.000857584590340
     0.868525147103090    -0.885974954594479    -0.001339323049441
    -0.001536096290605    -0.003280369758287     0.035592390586112
   4  15
     0.019534947239952    -0.001586345663648    -0.002221707396500
    -0.003564709720400    -0.866324409571390     0.862051437307496
     0.000325578022163     0.986354353370748    -0.757031308521399
   4  16
     0.024997297652824     0.001014844479793    -0.000956260397095
     0.002022970640083    -0.865119774859542    -0.860295212158024
    -0.003183762154020    -0.983565463865553    -0.754583322479815
   4  17
     0.030293944461960     0.016341368828146    -0.001357285585442
     0.015695397197890    -0.046653582178135     0.002800537600237
    -0.001160794495526     0.001697134580088    -0.074100803013492
   4  18
     0.007138033803022    -0.015136913854501     0.001459816268602
    -0.016073179546008     0.025191189397841    -0.001376995448102
     0.001666072563274    -0.002496790556169     0.059024420564488
   4  19
    -0.917275701310660     0.104031724607005     0.977682762851938
     0.103589344098837     0.145117053551441     0.063067087194399
     0.977602697940222     0.061916011739813    -0.922958383892847
   4  20
    -0.922684344315755     0.104710338262211    -0.984200454418266
     0.104003038475999     0.143262146604136    -0.067298727956393
    -0.983542656609905    -0.068758469981505    -0.925071744598803
   4  21
     0.034755088200337     0.073537599054539    -0.003268173263299
     0.073606887997235     0.061274387059295    -0.002003318365926
    -0.002832321207530    -0.003259766641850     0.052229941231616
   4  22
     0.120703269986438    -0.073308282460784    -0.000058086166530
    -0.072543815891450     0.193531524784716     0.000427410609868
    -0.000229583098371    -0.000520158902706     0.148059888039048
   4  23
    -0.915084277512089    -0.104966382496805     0.969346461313248
    -0.105081433053527     0.141809696309652    -0.074780482682881
     0.969390218150968    -0.075928163873520    -0.923981853914449
   4  24
    -0.924573288607209    -0.107862067766333    -0.967054319065652
    -0.107367433076886     0.149981721920180     0.072251611180996
    -0.966499033290808     0.070745039827218    -0.926360958570329
   4  25
     0.161221135015601    -0.001424535029819    -0.002932823802334
    -0.001684828434008    -1.048112633487979     1.171068088934559
    -0.009086980114574     1.193449545277067    -0.954606436418791
   4  26
     0.160811744671637     0.000687502659781     0.000146151603601
     0.000409642310891    -1.046190719960451    -1.167132287135159
     0.006430440983891    -1.190488996724821    -0.950982286542410
   4  27
    -0.015399862529965     0.028605708048782    -0.000796337439259
     0.017258736199488     0.007323111522388    -0.000495970074954
    -0.001872652827546    -0.002488082623901    -0.050968392730810
   4  28
    -0.958870979754387     1.182834613311676     0.000117400117480
     1.175347466552109    -1.046916860469897    -0.002230800006849
    -0.000178587527086    -0.003995121590806     0.159492113100914
   4  29
    -0.048375877407645    -0.000336921653725     0.037078531635169
    -0.001506448526721     0.012341826207656     0.011877627569981
     0.054813889944780    -0.000807849446179    -0.024701549424217
   4  30
    -0.048006965223006    -0.000580331817502    -0.039154647948082
    -0.000064670254661     0.012107663023018    -0.016590136606779
    -0.055425992599109    -0.006173293943254    -0.025304742772800
   4  31
    -0.960615871173283    -1.191264817058187    -0.001087988812643
    -1.171122154362885    -1.039770669845113    -0.001848309282572
    -0.000495852250947    -0.001074632127286     0.162514971873078
   4  32
    -0.012028754796418    -0.021888601263085    -0.001717084720645
    -0.024386733398808    -0.000424843271076    -0.000629579249152
    -0.000860280550580    -0.000885572684853    -0.053702385610290
   5   1
     0.002993069360057    -0.008508560828100    -0.003317799823421
     0.006560553653277     0.044367522198040     0.002166758628083
    -0.002178680885429    -0.000998270055339     0.092770313045856
   5   2
     0.002868832522972     0.007217078506934    -0.002240700494873
    -0.009486772025266     0.044578806189291     0.000046898552828
    -0.003085843540931     0.000995166848156     0.092897920370871
   5   3
    -0.016073256129400    -0.052753386924383     0.032707662331616
    -0.055827353238874    -0.066785675017972     0.002020596563677
    -0.035827403270463    -0.006230089849415    -0.017455019835993
   5   4
    -0.016435814210371    -0.055972336561970    -0.035517985588807
    -0.052902408418558    -0.066591524261694    -0.005211602673883
     0.033317796619974     0.000878756774055    -0.017448206476459
   5   5
     6.855872965491070     0.011475806648314     0.033386484485999
     0.021215459477307     7.141040172633454     0.019443270213697
     0.028966624623012     0.054085997890195     6.906040544903155
   5   6
    -0.037350294662237     0.004320505484608    -0.000730401794724
     0.004346197053760    -0.028944713182360    -0.000430280055320
    -0.001256349104360    -0.001281033918602    -0.205376414157158
   5   7
    -0.016939533020268     0.052302961019424     0.014522043699451
     0.051776301424986    -0.065035568404679    -0.068110534634232
     0.014949461398671    -0.069471265524642    -0.016653618504425
   5   8
    -0.013450717912254     0.051625750767689    -0.015307875851635
     0.051317069508821    -0.068120882175986     0.063206552040418
    -0.015464805899487     0.062403052762483    -0.018503580810987
   5   9
     0.019534947239952    -0.001586345663648    -0.002221707396500
    -0.003564709720400    -0.866324409571390     0.862051437307496
     0.000325578022163     0.986354353370748    -0.757031308521399
   5  10
     0.024997297652824     0.001014844479793    -0.000956260397095
     0.002022970640083    -0.865119774859542    -0.860295212158024
    -0.003183762154020    -0.983565463865553    -0.754583322479815
   5  11
     0.017373436749961     0.005609365878219    -0.001911051480638
     0.039671765783059    -0.018759993924544    -0.002502602240406
     0.001181313396849    -0.001891248725053    -0.064850385408144
   5  12
    -0.768290539139046     1.001106736717890     0.000857584590340
     0.868525147103090    -0.885974954594479    -0.001339323049441
    -0.001536096290605    -0.003280369758287     0.035592390586112
   5  13
    -0.048206834586296    -0.000953653188337    -0.031980819225741
    -0.001046759219265    -0.031147798186272    -0.011120113261268
    -0.044115732773739     0.009064896788667     0.004402503875168
   5  14
    -0.049440528793017    -0.000776457089234     0.030952226128160
    -0.001946243966608    -0.028008418284560     0.004941992476944
     0.042405475018588    -0.016157947876524     0.000994135380022
   5  15
     0.018509298436644     0.002387785127353    -0.001098323276960
    -0.037008236629247    -0.032136852800302     0.000295481786661