32
Lattice="0.0002486304938712 -0.0021412202591844 -7.9149125091652675 -7.907026399349437 -0.0013231005429032 -3.9572076111203875 3.953802526182028 8.0889769057842 0.0020683810832103" Properties=Z:I:1:pos:R:3:vasp_force:R:3 uuid=8ced52d3-b966-4c10-a9d4-5540ed6bb8fd vasp_virial="-0.024414815242316267 -0.02080330575325615 -0.009794995114686221 -0.02080330575325615 -0.191975584896163 -0.11014314022672482 -0.009794995114686221 -0.11014314022672482 -0.06672287478607385" vasp_energy=-147.42293029 pbc="T T T"
      46      -3.95306723       8.08608998      -7.92285151       0.00059700       0.00102900       0.07115000 
      46      -3.95319186       8.08716330      -3.95539525       0.00024000       0.00064100       0.00033700 
      46      -1.97657992       4.04333639      -1.97782564       0.00039900      -0.00005100       0.00222700 
      46      -1.97645561       4.04226578      -5.93528189       0.00009500       0.00126800       0.00220400 
      46       0.00038350       8.08728954      -3.95551957       0.00018000       0.00031000       0.00285700 
      46       0.00050781       8.08621893      -7.91297583       0.00018900       0.00029000       0.00285500 
      46      -5.92990665       4.04106893      -9.89261382       0.00054700       0.00031100       0.00175900 
      46      -5.93003096       4.04213954      -5.93515757      -0.00014400       0.00024100       0.00175000 
      46      -3.95333211       2.02048043      -5.93551190      -0.00135100      -0.00026600       0.00010000 
      46      -3.95320779       2.01940982      -9.89296815      -0.00048700      -0.00051800       0.00006500 
      46       1.97720667       6.06455983      -7.91333016      -0.00092400      -0.00039300      -0.00053900 
      46       1.97708235       6.06563044      -3.95587390      -0.00089900      -0.00032100       0.00035700 
      46       0.00011893       2.02167729      -1.97817997       0.00003000      -0.00990600      -0.00696300 
      46       0.00024325       2.02060668      -5.93563622       0.00006600       0.00979400      -0.00719700 
      46      -1.97636869       6.06443358      -7.91320583       0.00002100      -0.00024300       0.00083400 
      46      -1.97649300       6.06550419      -3.95574958       0.00007900      -0.00025700      -0.00017100 
      46      -1.97663319      -0.00117848      -5.93586623      -0.01018600      -0.00164000      -0.01115900 
      46      -1.97675751      -0.00010787      -1.97840998       0.00942700      -0.00033300      -0.01083000 
      46      -3.95336945       4.04371904      -3.95597959      -0.00013200      -0.00097600      -0.00116300 
      46      -3.95324513       4.04264843      -7.91343585      -0.00016400      -0.00093100      -0.00249500 
      46      -5.93020855      -0.00130472      -5.93574191      -0.00982700       0.00100200      -0.01172500 
      46      -5.93008424      -0.00237533      -9.89319816       0.00953200      -0.00046500      -0.01201400 
      46       0.00033023       4.04277467      -7.91356017      -0.00036100       0.00028700      -0.00113800 
      46       0.00020591       4.04384528      -3.95610391      -0.00039000       0.00025800      -0.00209600 
      47      -1.97660658       2.02107895      -3.95684587       0.00011600       0.00008800       0.00118600 
      47      -1.97648226       2.02000834      -7.91430213       0.00008000       0.00012100      -0.00091900 
      47      -3.95309420       6.06383524      -9.89187174       0.00016700      -0.01196600      -0.01006000 
      47      -3.95321852       6.06490585      -5.93441549       0.00001100       0.01187300      -0.00981300 
      47      -5.93018194       2.02095270      -3.95672155       0.00077500       0.00020900      -0.00053400 
      47      -5.93005762       2.01988209      -7.91417781       0.00076100       0.00018900       0.00162800 
      47       0.00035684       6.06503210      -5.93453981       0.00022600       0.00015000      -0.00024900 
      47       0.00023253       6.06610271      -1.97708355       0.00132800       0.00020400      -0.00024400 
32
Lattice="0.0002486304938712 -0.0021412202591844 -7.9149125091652675 -7.907026399349437 -0.0013231005429032 -3.9572076111203875 3.953802526182028 8.0889769057842 0.0020683810832103" Properties=Z:I:1:pos:R:3:vasp_force:R:3 uuid=30aa7b6f-eebd-45bc-87ae-702ecb6f22b0 vasp_virial="-0.0239282251624254 -0.020316715673365286 -0.009175698649370574 -0.020316715673365286 -0.19076226937227933 -0.1311707829648657 -0.009175698649370574 -0.1311707829648657 -0.06597403161117686" vasp_energy=-147.42289005 pbc="T T T"
      46      -3.95306754       8.08609269      -7.91285151       0.00081100       0.00067300       0.00272200 
      46      -3.95319186       8.08716330      -3.95539525       0.00053500       0.00061400       0.00196700 
      46      -1.97657992       4.04333639      -1.97782564       0.00007300       0.00094500       0.00262000 
      46      -1.97645561       4.04226578      -5.93528189       0.00719500       0.00853100       0.00222100 
      46       0.00038350       8.08728954      -3.95551957       0.00002300      -0.00358100       0.00528200 
      46       0.00050781       8.08621893      -7.91297583      -0.00002400       0.00407400       0.00527800 
      46      -5.92990665       4.04106893      -9.89261382       0.00004700      -0.00006800       0.00216900 
      46      -5.93003096       4.04213954      -5.93515757       0.00696500      -0.00734900       0.00174300 
      46      -3.94438951       2.02048193      -5.93103642      -0.07110900       0.00001500      -0.03496400 
      46      -3.95320779       2.01940982      -9.89296815      -0.00160100      -0.00044300       0.00080400 
      46       1.97720667       6.06455983      -7.91333016      -0.00074700      -0.00047600       0.00007300 
      46       1.97708235       6.06563044      -3.95587390      -0.00071800      -0.00060600       0.00018100 
      46       0.00011893       2.02167729      -1.97817997       0.00074300      -0.00026100       0.00029300 
      46       0.00024325       2.02060668      -5.93563622       0.00073900      -0.00025900       0.00029200 
      46      -1.97636869       6.06443358      -7.91320583       0.00023000      -0.00010000       0.00053300 
      46      -1.97649300       6.06550419      -3.95574958       0.00023500      -0.00008100       0.00053400 
      46      -1.97663319      -0.00117848      -5.93586623       0.00678000      -0.00886900      -0.00194200 
      46      -1.97675751      -0.00010787      -1.97840998      -0.00032000      -0.00131800      -0.00152200 
      46      -3.95336945       4.04371904      -3.95597959      -0.00039100       0.00289400       0.00162300 
      46      -3.95324513       4.04264843      -7.91343585      -0.00032700      -0.00476400       0.00157300 
      46      -5.93020855      -0.00130472      -5.93574191       0.00640700       0.00791300      -0.00278000 
      46      -5.93008424      -0.00237533      -9.89319816      -0.00053600       0.00060100      -0.00238200 
      46       0.00033023       4.04277467      -7.91356017      -0.00008000       0.00026600      -0.00304300 
      46       0.00020591       4.04384528      -3.95610391       0.00019500       0.00033000      -0.00228600 
      47      -1.97660658       2.02107895      -3.95684587       0.01682100       0.00011900       0.01710400 
      47      -1.97648226       2.02000834      -7.91430213       0.00453200       0.00013800      -0.00715100 
      47      -3.95309420       6.06383524      -9.89187174       0.00003400       0.00000100      -0.00037100 
      47      -3.95321852       6.06490585      -5.93441549       0.00003800       0.00025300      -0.00055000 
      47      -5.93018194       2.02095270      -3.95672155       0.00521400       0.00021200      -0.00665700 
      47      -5.93005762       2.01988209      -7.91417781       0.01680500       0.00019300       0.01673100 
      47       0.00035684       6.06503210      -5.93453981       0.00071800       0.00033100      -0.00013800 
      47       0.00023253       6.06610271      -1.97708355       0.00071400       0.00007300       0.00004100 
32
Lattice="0.0002486304938712 -0.0021412202591844 -7.9149125091652675 -7.907026399349437 -0.0013231005429032 -3.9572076111203875 3.953802526182028 8.0889769057842 0.0020683810832103" Properties=Z:I:1:pos:R:3:vasp_force:R:3 uuid=8f84ab11-8993-4124-acda-d5fa5e2ed578 vasp_virial="-0.023188861015058765 -0.01954575476756418 -0.009747599977034511 -0.01954575476756418 -0.19046525984299525 -0.1313445651362553 -0.009747599977034511 -0.1313445651362553 -0.0653136593598964" vasp_energy=-147.4229285 pbc="T T T"
      46      -3.95306754       8.08609269      -7.91285151       0.00046900       0.00093000       0.00244700 
      46      -3.95319186       8.08716330      -3.95539525       0.00047000       0.00090700       0.00229500 
      46      -1.97657992       4.04333639      -1.97782564       0.00015100       0.00109900       0.00236500 
      46      -1.97645561       4.04226578      -5.93528189       0.01300100       0.01258500       0.00233100 
      46       0.00038350       8.08728954      -3.95551957       0.00014500       0.00799100      -0.00683200 
      46       0.00050781       8.08621893      -7.91297583       0.00010300       0.00796200       0.01057000 
      46      -5.92990665       4.04106893      -9.89261382       0.00007800       0.00030100       0.00188500 
      46      -5.93003096       4.04213954      -5.93515757      -0.00546700       0.00446700       0.00190800 
      46      -3.94894073       2.02946463      -5.93550960      -0.03549900      -0.06335300       0.00094500 
      46      -3.95320779       2.01940982      -9.89296815      -0.00130900      -0.00077300       0.00001700 
      46       1.97720667       6.06455983      -7.91333016      -0.00098700       0.00007600       0.00014100 
      46       1.97708235       6.06563044      -3.95587390      -0.00097700       0.00014200      -0.00011100 
      46       0.00011893       2.02167729      -1.97817997       0.00040100      -0.00072900       0.00044600 
      46       0.00024325       2.02060668      -5.93563622       0.00038000      -0.00072000       0.00044700 
      46      -1.97636869       6.06443358      -7.91320583       0.00032300       0.00039200       0.00042000 
      46      -1.97649300       6.06550419      -3.95574958       0.00032300       0.00039200       0.00042600 
      46      -1.97663319      -0.00117848      -5.93586623      -0.00571800       0.00318300      -0.00177400 
      46      -1.97675751      -0.00010787      -1.97840998      -0.00028500      -0.00094800      -0.00179900 
      46      -3.95336945       4.04371904      -3.95597959      -0.00028500       0.00693000       0.00719600 
      46      -3.95324513       4.04264843      -7.91343585      -0.00024300       0.00696200      -0.01082500 
      46      -5.93020855      -0.00130472      -5.93574191       0.01178500       0.01168500      -0.00267600 
      46      -5.93008424      -0.00237533      -9.89319816      -0.00046800       0.00075300      -0.00264500 
      46       0.00033023       4.04277467      -7.91356017      -0.00013800       0.00056200      -0.00271500 
      46       0.00020591       4.04384528      -3.95610391      -0.00013900       0.00058500      -0.00256200 
      47      -1.97660658       2.02107895      -3.95684587       0.00522700      -0.00118300       0.00542100 
      47      -1.97648226       2.02000834      -7.91430213       0.00522700      -0.00116300      -0.00631600 
      47      -3.95309420       6.06383524      -9.89187174      -0.00008200       0.00044100      -0.00044800 
      47      -3.95321852       6.06490585      -5.93441549       0.00023000       0.00100900      -0.00043100 
      47      -5.93018194       2.02095270      -3.95672155       0.00588400      -0.00103400      -0.00585300 
      47      -5.93005762       2.01988209      -7.91417781       0.00588400      -0.00105300       0.00578300 
      47       0.00035684       6.06503210      -5.93453981       0.00091500       0.00109200      -0.00001900 
      47       0.00023253       6.06610271      -1.97708355       0.00059600       0.00051100      -0.00003600 
32
Lattice="0.0002486304938712 -0.0021412202591844 -7.9149125091652675 -7.907026399349437 -0.0013231005429032 -3.9572076111203875 3.953802526182028 8.0889769057842 0.0020683810832103" Properties=Z:I:1:pos:R:3:vasp_force:R:3 uuid=785da5f5-9dbe-4148-8cc8-16c9722872b7 vasp_virial="-0.023988259003450897 -0.020086059336793645 -0.010164677188369537 -0.020086059336793645 -0.19073699196553173 -0.1313382457845684 -0.010164677188369537 -0.1313382457845684 -0.06605618318310649" vasp_energy=-147.42293599 pbc="T T T"
      46      -3.95306754       8.08609269      -7.91285151      -0.00000200       0.00033000       0.00231800 
      46      -3.95319186       8.08716330      -3.95539525      -0.00000300       0.00035300       0.00247100 
      46      -1.97657992       4.04333639      -1.97782564       0.00032700       0.00016200       0.00240100 
      46      -1.97645561       4.04226578      -5.93528189      -0.01192600      -0.01077100       0.00243200 
      46       0.00038350       8.08728954      -3.95551957       0.00026500      -0.00763600       0.01098300 
      46       0.00050781       8.08621893      -7.91297583       0.00030700      -0.00760400      -0.00704000 
      46      -5.92990665       4.04106893      -9.89261382       0.00030700       0.00027500       0.00195600 
      46      -5.93003096       4.04213954      -5.93515757       0.00574000      -0.00385600       0.00193100 
      46      -3.95772349       2.01149624      -5.93551420       0.03488600       0.06294400      -0.00089800 
      46      -3.95320779       2.01940982      -9.89296815      -0.00054700       0.00003100       0.00007700 
      46       1.97720667       6.06455983      -7.91333016      -0.00086900      -0.00081800      -0.00004700 
      46       1.97708235       6.06563044      -3.95587390      -0.00087900      -0.00088400       0.00020500 
      46       0.00011893       2.02167729      -1.97817997      -0.00029200       0.00022700       0.00049100 
      46       0.00024325       2.02060668      -5.93563622      -0.00031300       0.00023600       0.00049200 
      46      -1.97636869       6.06443358      -7.91320583      -0.00023500      -0.00088500       0.00051200 
      46      -1.97649300       6.06550419      -3.95574958      -0.00023500      -0.00088500       0.00051800 
      46      -1.97663319      -0.00117848      -5.93586623       0.00548900      -0.00514000      -0.00175100 
      46      -1.97675751      -0.00010787      -1.97840998      -0.00005500      -0.00097300      -0.00172800 
      46      -3.95336945       4.04371904      -3.95597959      -0.00008100      -0.00863300      -0.01041200 
      46      -3.95324513       4.04264843      -7.91343585      -0.00012300      -0.00866400       0.00698900 
      46      -5.93020855      -0.00130472      -5.93574191      -0.01314200      -0.01166800      -0.00257600 
      46      -5.93008424      -0.00237533      -9.89319816      -0.00029100      -0.00018300      -0.00260900 
      46       0.00033023       4.04277467      -7.91356017      -0.00061100       0.00000800      -0.00253900 
      46       0.00020591       4.04384528      -3.95610391      -0.00061000      -0.00001500      -0.00269200 
      47      -1.97660658       2.02107895      -3.95684587      -0.00503800       0.00138700      -0.00620600 
      47      -1.97648226       2.02000834      -7.91430213      -0.00503800       0.00136800       0.00543100 
      47      -3.95309420       6.06383524      -9.89187174       0.00025100      -0.00017700      -0.00038800 
      47      -3.95321852       6.06490585      -5.93441549      -0.00006900      -0.00075800      -0.00040400 
      47      -5.93018194       2.02095270      -3.95672155      -0.00438000       0.00149700       0.00589200 
      47      -5.93005762       2.01988209      -7.91417781      -0.00438000       0.00151600      -0.00584300 
      47       0.00035684       6.06503210      -5.93453981       0.00061700      -0.00067600       0.00000800 
      47       0.00023253       6.06610271      -1.97708355       0.00092900      -0.00010700       0.00002500 
32
Lattice="0.0002486304938712 -0.0021412202591844 -7.9149125091652675 -7.907026399349437 -0.0013231005429032 -3.9572076111203875 3.953802526182028 8.0889769057842 0.0020683810832103" Properties=Z:I:1:pos:R:3:vasp_force:R:3 uuid=6c276ea1-1b96-4874-bd7e-49291ba1fc20 vasp_virial="-0.025331121236915947 -0.020462060762163857 -0.0103763754698805 -0.020462060762163857 -0.19055373076661178 -0.15278296573404437 -0.0103763754698805 -0.15278296573404437 -0.06544636574532119" vasp_energy=-147.42296701 pbc="T T T"
      46      -3.95306754       8.08609269      -7.91285151      -0.00935800      -0.00003100      -0.00668800 
      46      -3.95319186       8.08716330      -3.95539525       0.01025400       0.00127500      -0.00697500 
      46      -1.97657992       4.04333639      -1.97782564       0.00029200       0.00062900       0.00299900 
      46      -1.97645561       4.04226578      -5.93528189       0.00026800       0.00066700       0.00166800 
      46       0.00038350       8.08728954      -3.95551957       0.00972700      -0.00044600      -0.00713900 
      46       0.00050781       8.08621893      -7.91297583      -0.00963400       0.00102100      -0.00747400 
      46      -5.92990665       4.04106893      -9.89261382       0.00020400       0.00028400       0.00246800 
      46      -5.93003096       4.04213954      -5.93515757       0.00022500       0.00031100       0.00342700 
      46      -3.95333211       2.02048043      -5.93551190      -0.00087300      -0.00041200       0.00042900 
      46      -3.95320779       2.01940982      -9.89296815      -0.00088100      -0.00036500      -0.00057500 
      46       1.97720667       6.06455983      -7.91333016      -0.00092000      -0.01035400      -0.00758200 
      46       1.97708235       6.06563044      -3.95587390      -0.00088500       0.00934400      -0.00738800 
      46       0.00011893       2.02167729      -1.97817997       0.00008000      -0.00025100      -0.00009900 
      46       0.00024325       2.02060668      -5.93563622       0.00004100      -0.00024600       0.00079500 
      46      -1.97636869       6.06443358      -7.91320583      -0.00035700      -0.00013700       0.00053900 
      46      -1.97649300       6.06550419      -3.95574958       0.00050800      -0.00038900       0.00050600 
      46      -1.97663288      -0.00118118      -5.94586623      -0.00049300      -0.00094700       0.06646300 
      46      -1.97675751      -0.00010787      -1.97840998      -0.00013900      -0.00096400      -0.00379000 
      46      -3.95336945       4.04371904      -3.95597959       0.00002700      -0.00163600      -0.00190500 
      46      -3.95324513       4.04264843      -7.91343585      -0.00027700      -0.00031700      -0.00191900 
      46      -5.93020855      -0.00130472      -5.93574191      -0.00036200       0.00029700      -0.00167200 
      46      -5.93008424      -0.00237533      -9.89319816      -0.00037200       0.00031600      -0.00167100 
      46       0.00033023       4.04277467      -7.91356017      -0.00070300       0.00024100      -0.00277100 
      46       0.00020591       4.04384528      -3.95610391      -0.00001100       0.00031300      -0.00278000 
      47      -1.97660658       2.02107895      -3.95684587       0.00018700      -0.01155500      -0.00976600 
      47      -1.97648226       2.02000834      -7.91430213       0.00003200       0.01228400      -0.01007300 
      47      -3.95309420       6.06383524      -9.89187174       0.00011300       0.00012000       0.00120300 
      47      -3.95321852       6.06490585      -5.93441549       0.00010700       0.00012400      -0.00090100 
      47      -5.93018194       2.02095270      -3.95672155       0.00135200       0.00022000      -0.00022500 
      47      -5.93005762       2.01988209      -7.91417781       0.00024900       0.00016700      -0.00023300 
      47       0.00035684       6.06503210      -5.93453981       0.00080700       0.00022400       0.00164600 
      47       0.00023253       6.06610271      -1.97708355       0.00079100       0.00021300      -0.00051600 
32
Lattice="0.0002486304938712 -0.0021412202591844 -7.9149125091652675 -7.907026399349437 -0.0013231005429032 -3.9572076111203875 3.953802526182028 8.0889769057842 0.0020683810832103" Properties=Z:I:1:pos:R:3:vasp_force:R:3 uuid=98fafd12-22aa-4527-b98d-078e3c336ee8 vasp_virial="-0.02372916558428823 -0.02056001071331072 -0.01044272866259289 -0.02056001071331072 -0.19162802055338385 -0.1101273418475076 -0.01044272866259289 -0.1101273418475076 -0.0663784701191381" vasp_energy=-147.42294154 pbc="T T T"
      46      -3.95306754       8.08609269      -7.91285151       0.01027900       0.00133100       0.01177100 
      46      -3.95319186       8.08716330      -3.95539525      -0.00933400       0.00002500       0.01144300 
      46      -1.97657992       4.04333639      -1.97782564       0.00022700       0.00066800       0.00177600 
      46      -1.97645561       4.04226578      -5.93528189       0.00026000       0.00062300       0.00310800 
      46       0.00038350       8.08728954      -3.95551957      -0.00969400       0.00106000       0.01130100 
      46       0.00050781       8.08621893      -7.91297583       0.00966800      -0.00040700       0.01101400 
      46      -5.92990665       4.04106893      -9.89261382       0.00022800       0.00033900       0.00138200 
      46      -5.93003096       4.04213954      -5.93515757       0.00019900       0.00031000       0.00042400 
      46      -3.95333211       2.02048043      -5.93551190      -0.00087800      -0.00035200      -0.00032500 
      46      -3.95320779       2.01940982      -9.89296815      -0.00093700      -0.00033700       0.00068000 
      46       1.97720667       6.06455983      -7.91333016      -0.00088800       0.00931200       0.00747200 
      46       1.97708235       6.06563044      -3.95587390      -0.00092400      -0.01038600       0.00770500 
      46       0.00011893       2.02167729      -1.97817997       0.00006600      -0.00020100       0.00104800 
      46       0.00024325       2.02060668      -5.93563622       0.00004100      -0.00027300       0.00015300 
      46      -1.97636869       6.06443358      -7.91320583       0.00049300      -0.00032900       0.00040900 
      46      -1.97649300       6.06550419      -3.95574958      -0.00037100      -0.00007600       0.00044400 
      46      -1.97663351      -0.00117577      -5.92586623      -0.00008500      -0.00174400      -0.07036700 
      46      -1.97675751      -0.00010787      -1.97840998      -0.00014500      -0.00094900       0.00027600 
      46      -3.95336945       4.04371904      -3.95597959      -0.00030400      -0.00025700      -0.00161400 
      46      -3.95324513       4.04264843      -7.91343585       0.00000000      -0.00157500      -0.00159100 
      46      -5.93020855      -0.00130472      -5.93574191      -0.00035000       0.00030600      -0.00356900 
      46      -5.93008424      -0.00237533      -9.89319816      -0.00034100       0.00028600      -0.00357100 
      46       0.00033023       4.04277467      -7.91356017      -0.00001700       0.00035600      -0.00246300 
      46       0.00020591       4.04384528      -3.95610391      -0.00070900       0.00028500      -0.00247300 
      47      -1.97660658       2.02107895      -3.95684587       0.00002700       0.01224800       0.00921700 
      47      -1.97648226       2.02000834      -7.91430213       0.00018200      -0.01158900       0.00897100 
      47      -3.95309420       6.06383524      -9.89187174       0.00007800       0.00019600      -0.00202800 
      47      -3.95321852       6.06490585      -5.93441549       0.00011300       0.00016300       0.00007600 
      47      -5.93018194       2.02095270      -3.95672155       0.00022400       0.00022600       0.00022700 
      47      -5.93005762       2.01988209      -7.91417781       0.00132600       0.00028000       0.00023200 
      47       0.00035684       6.06503210      -5.93453981       0.00079200       0.00024100      -0.00164600 
      47       0.00023253       6.06610271      -1.97708355       0.00077700       0.00022000       0.00051600 
32
Lattice="0.0002486304938712 -0.0021412202591844 -7.9149125091652675 -7.907026399349437 -0.0013231005429032 -3.9572076111203875 3.953802526182028 8.0889769057842 0.0020683810832103" Properties=Z:I:1:pos:R:3:vasp_force:R:3 uuid=dbcbc4cd-feaf-4303-a80f-95455fbf59c9 vasp_virial="-0.025618651738669635 -0.0020253522156496347 -0.010354257738976368 -0.0020253522156496347 -0.19178600434555618 -0.1410921651132898 -0.010354257738976368 -0.1410921651132898 -0.06695985047433238" vasp_energy=-147.42295884 pbc="T T T"
      46      -3.95306754       8.08609269      -7.91285151      -0.01208700       0.00126200      -0.01020600 
      46      -3.95319186       8.08716330      -3.95539525      -0.00354100       0.00183300       0.00697300 
      46      -1.97657992       4.04333639      -1.97782564       0.00033500       0.00048400       0.00268500 
      46      -1.97645561       4.04226578      -5.93528189       0.00053100       0.00077400       0.00206800 
      46       0.00038350       8.08728954      -3.95551957      -0.00365600      -0.00099700       0.00652900 
      46       0.00050781       8.08621893      -7.91297583      -0.01267900      -0.00036000      -0.01117200 
      46      -5.92990665       4.04106893      -9.89261382       0.00051000       0.00093500       0.00215200 
      46      -5.93003096       4.04213954      -5.93515757       0.00129600      -0.00037100       0.00261100 
      46      -3.95333211       2.02048043      -5.93551190      -0.00785400       0.00869200       0.00025700 
      46      -3.95320779       2.01940982      -9.89296815      -0.00073800      -0.00032900      -0.00023400 
      46       1.97720667       6.06455983      -7.91333016      -0.00067500      -0.00477600      -0.00331300 
      46       1.97708235       6.06563044      -3.95587390      -0.00074500       0.00401800      -0.00333300 
      46       0.00011893       2.02167729      -1.97817997       0.00022800      -0.00023900       0.00022300 
      46       0.00024325       2.02060668      -5.93563622      -0.00673000      -0.00915500       0.00060400 
      46      -1.97636869       6.06443358      -7.91320583      -0.00055800      -0.00022700       0.00022900 
      46      -1.97649300       6.06550419      -3.95574958      -0.00018300      -0.00033100       0.00078000 
      46      -1.98557579      -0.00117997      -5.94034171       0.06110400      -0.00034800       0.02856200 
      46      -1.97675751      -0.00010787      -1.97840998      -0.00048000      -0.00093300      -0.00265800 
      46      -3.95336945       4.04371904      -3.95597959      -0.00023000      -0.00080300      -0.00167900 
      46      -3.95324513       4.04264843      -7.91343585      -0.00033500      -0.00022500      -0.00195900 
      46      -5.93020855      -0.00130472      -5.93574191      -0.00034600       0.00020300      -0.00222700 
      46      -5.93008424      -0.00237533      -9.89319816      -0.00033400       0.00035500      -0.00219000 
      46       0.00033023       4.04277467      -7.91356017      -0.00065000      -0.00022300      -0.00238600 
      46       0.00020591       4.04384528      -3.95610391      -0.00035100      -0.00021000      -0.00299100 
      47      -1.97660658       2.02107895      -3.95684587       0.00155000      -0.00516600      -0.00463000 
      47      -1.97648226       2.02000834      -7.91430213       0.00153200       0.00548400      -0.00470300 
      47      -3.95309420       6.06383524      -9.89187174      -0.00835500       0.01052800       0.00030100 
      47      -3.95321852       6.06490585      -5.93441549      -0.00003400       0.00037100      -0.00062100 
      47      -5.93018194       2.02095270      -3.95672155       0.00060300       0.00019600       0.00024300 
      47      -5.93005762       2.01988209      -7.91417781       0.00011300       0.00017500      -0.00044100 
      47       0.00035684       6.06503210      -5.93453981      -0.00791500      -0.01061700       0.00076500 
      47       0.00023253       6.06610271      -1.97708355       0.00067500       0.00000100      -0.00023900 
32
Lattice="0.0002486304938712 -0.0021412202591844 -7.9149125091652675 -7.907026399349437 -0.0013231005429032 -3.9572076111203875 3.953802526182028 8.0889769057842 0.0020683810832103" Properties=Z:I:1:pos:R:3:vasp_force:R:3 uuid=27fa9da3-e432-4ad8-a6b2-bd4971a0b6c8 vasp_virial="-0.024601236117079647 -0.0393821997127255 -0.009640170998357307 -0.0393821997127255 -0.19151743189886317 -0.12195400852953031 -0.009640170998357307 -0.12195400852953031 -0.06634371368486018" vasp_energy=-147.42294841 pbc="T T T"
      46      -3.95306754       8.08609269      -7.91285151       0.01321000       0.00001000       0.01562900 
      46      -3.95319186       8.08716330      -3.95539525       0.00410700      -0.00057300      -0.00229900 
      46      -1.97657992       4.04333639      -1.97782564       0.00018500       0.00078500       0.00208100 
      46      -1.97645561       4.04226578      -5.93528189      -0.00000700       0.00047500       0.00270700 
      46       0.00038350       8.08728954      -3.95551957       0.00402700       0.00156800      -0.00258500 
      46       0.00050781       8.08621893      -7.91297583       0.01250600       0.00094200       0.01437100 
      46      -5.92990665       4.04106893      -9.89261382      -0.00009400      -0.00034300       0.00169400 