  30
   1   1
     7.073478463189815     0.120855922853438    -0.009255891997854
     0.124251667090029     6.960834453123901    -0.061732607133271
     0.022674241681301    -0.036416236667626     7.354842122885582
   1   2
    -0.874661132212961    -0.814423614675652    -0.023935283699739
    -1.010728558185944    -0.905452542396708    -0.001017809806638
     0.015766574011373     0.033556003815374     0.015967264558408
   1   3
    -0.011048587939947    -0.020520574036551    -0.009772210699479
     0.022485770381242     0.037695774318033     0.003302070428208
    -0.014290765860166     0.000826930931966     0.037541952498106
   1   4
    -0.010966514206405     0.022813399497699    -0.013170924300600
    -0.020266012941415     0.037487250011617     0.001767814331090
    -0.011106649022036     0.002114211933573     0.037542863175455
   1   5
    -0.874611936000744    -1.010748585454575     0.016880793024405
    -0.814055913692886    -0.905215895754256     0.034562088185937
    -0.025154157739800    -0.002320038205757     0.016008401773256
   1   6
    -0.957210171697033    -0.084568181144906     1.098971423410542
    -0.069329124308399     0.062371731323754     0.087775042538605
     1.010092830905823     0.124791901661726    -0.910444205199538
   1   7
     0.059733604461544    -0.065019443924521    -0.049743200033362
    -0.088585158750182    -0.934245131156827    -1.134198932576975
    -0.110142799672356    -1.029285878884043    -0.901669947988046
   1   8
    -0.019833704811188    -0.021945435120764     0.004464426564070
    -0.040472185231085    -0.070485317670544    -0.064674367769501
    -0.001321757881938    -0.039063911687338    -0.070911273005619
   1   9
     0.050457112943101     0.003029727331907    -0.017117561180216
     0.009905342238303     0.039199808692336     0.027632350636525
     0.009735444175017    -0.003574225417455    -0.084264522555666
   1  10
    -0.080767263460846    -0.034176659204829     0.078258385627929
    -0.018261485419723    -0.028148478278359    -0.017737119426726
     0.032521030316984     0.007838477859827    -0.062586110317614
   1  11
    -0.004047763443231     0.026159145109406     0.043987202515153
     0.042005978533523    -0.029837703684428    -0.061718399839403
     0.031841149331910    -0.048580864224873    -0.082307283605556
   1  12
    -0.037935221152219    -0.027960750613268    -0.022415929168567
    -0.027673500630078     0.028879324263335     0.021457930207320
     0.002453663897024     0.002602624507752     0.023258391177187
   1  13
    -0.769186983333432    -0.040890088431699    -1.038333007451660
    -0.049648740920169     0.069074175107067    -0.034057766891947
    -0.923494425467897    -0.054644434845919    -0.862655061156620
   1  14
     0.051921605200847    -0.044782653542512     0.044677201880459
    -0.042616249754007    -0.777741634401883     1.052742045065004
     0.062461052250107     0.938027261398080    -0.884313213870893
   1  15
     0.039641012443377    -0.027539118196110    -0.028240487855028
    -0.036571145526602     0.003790255275677     0.037289159231859
    -0.013931140680346     0.010918970836110     0.032726032826311
   1  16
     0.008060349815927     0.014358526702956     0.006790424771882
     0.014162886654421    -0.036442235202675     0.000601528415489
     0.005742799672333    -0.000171892500961     0.026371970807760
   1  17
    -0.582964913276897     0.547019493997971     0.016880877291417
     0.546373749560027    -0.598339218042866    -0.016489821694479
     0.015818833636656    -0.017540548874408     0.043943230898256
   1  18
    -0.172108675892720     0.002228931586928     0.000196039987826
     0.002329490014519     0.040386995637691    -0.016477389025545
    -0.000987777041926    -0.017157036885655     0.053199402053353
   1  19
    -1.217732173114121     1.378991370600398    -0.030950231625840
     1.378971038908154    -1.244101884616587     0.029635270546280
    -0.031953179049900     0.029073453486165     0.131971402896333
   1  20
     0.044622559809039     0.017314546444453     0.015579729523180
     0.017565953911487    -0.060810270806395    -0.001851732873968
     0.014492686791766    -0.002382353163337     0.045410050211160
   1  21
    -0.029882807736872     0.017548963131525     0.004837292831872
     0.014837405984178     0.001131943677613    -0.020673665939866
    -0.001443321265242    -0.007773683934432     0.008741635842285
   1  22
    -0.011838170760983     0.019691263538734     0.011495328823379
     0.028427214724806    -0.027027395008211    -0.006016745549126
     0.011832291565394    -0.015300285900949    -0.023387277878931
   1  23
    -0.012466756088693    -0.001218792811945    -0.015962181565539
    -0.011458429679016     0.006937228275918     0.002813073097156
    -0.018083745987568     0.014286538800913    -0.017713885273277
   1  24
     0.120743863966665     0.006170574914680    -0.033372388988648
     0.020956937381608    -0.996183836381943     1.158229107788034
    -0.033156994702669     1.128641959107480    -0.987853543784297
   1  25
    -0.991574935066832     0.019287348612941    -1.123960931501885
     0.010213123840802     0.099031328612312     0.039441810137368
    -1.122921128423604     0.052867499638061    -0.997414265505258
   1  26
     0.136090071314999    -0.015887525161393     0.003972550365623
    -0.003371563667776    -0.892475408461464    -1.078756653725166
     0.011128220165417    -1.063153023853749    -0.912392359200665
   1  27
    -0.902015654462374    -0.005597979711472     1.073205459825387
    -0.007926906191967     0.139448182975336     0.005660577106552
     1.058358309373192    -0.003494662141638    -0.923547067550775
   1  28
    -0.041464219413704     0.009110678724251     0.003377765621029
     0.009456902553655    -0.006446918700208     0.020071696931683
     0.019110179614437     0.001351791664513    -0.019827463714008
   1  29
     0.016673933819892     0.020972900587607     0.005784898888433
     0.010644884451985     0.004412228277301     0.003491352291182
    -0.010164180388283     0.014470711852654    -0.054806022481192
   1  30
     0.000895507540011    -0.010273895370141    -0.013129073720904
    -0.011623541396297    -0.017729278665199    -0.011070359063338
    -0.005877562611059    -0.020509479162651    -0.031430440196510
   2   1
    -0.874611936000743    -1.010748585454574     0.016880793024405
    -0.814055913692885    -0.905215895754255     0.034562088185937
    -0.025154157739800    -0.002320038205757     0.016008401773256
   2   2
     7.073478463189812     0.120855922853438    -0.009255891997854
     0.124251667090029     6.960834453123899    -0.061732607133272
     0.022674241681301    -0.036416236667627     7.354842122885582
   2   3
    -0.874661132212961    -0.814423614675652    -0.023935283699738
    -1.010728558185943    -0.905452542396708    -0.001017809806638
     0.015766574011373     0.033556003815374     0.015967264558408
   2   4
    -0.011048587939947    -0.020520574036551    -0.009772210699479
     0.022485770381242     0.037695774318033     0.003302070428208
    -0.014290765860166     0.000826930931966     0.037541952498106
   2   5
    -0.010966514206405     0.022813399497699    -0.013170924300600
    -0.020266012941415     0.037487250011617     0.001767814331090
    -0.011106649022036     0.002114211933573     0.037542863175455
   2   6
    -0.080767263460846    -0.034176659204829     0.078258385627929
    -0.018261485419723    -0.028148478278359    -0.017737119426726
     0.032521030316984     0.007838477859827    -0.062586110317614
   2   7
    -0.957210171697033    -0.084568181144906     1.098971423410542
    -0.069329124308398     0.062371731323754     0.087775042538604
     1.010092830905823     0.124791901661726    -0.910444205199538
   2   8
     0.059733604461544    -0.065019443924521    -0.049743200033362
    -0.088585158750182    -0.934245131156826    -1.134198932576975
    -0.110142799672356    -1.029285878884043    -0.901669947988046
   2   9
    -0.019833704811188    -0.021945435120764     0.004464426564070
    -0.040472185231085    -0.070485317670544    -0.064674367769501
    -0.001321757881938    -0.039063911687338    -0.070911273005619
   2  10
     0.050457112943100     0.003029727331907    -0.017117561180216
     0.009905342238303     0.039199808692336     0.027632350636525
     0.009735444175017    -0.003574225417455    -0.084264522555666
   2  11
     0.039641012443377    -0.027539118196110    -0.028240487855028
    -0.036571145526602     0.003790255275677     0.037289159231859
    -0.013931140680346     0.010918970836110     0.032726032826311
   2  12
    -0.004047763443231     0.026159145109406     0.043987202515153
     0.042005978533523    -0.029837703684428    -0.061718399839403
     0.031841149331910    -0.048580864224873    -0.082307283605556
   2  13
    -0.037935221152219    -0.027960750613268    -0.022415929168567
    -0.027673500630078     0.028879324263335     0.021457930207320
     0.002453663897024     0.002602624507752     0.023258391177187
   2  14
    -0.769186983333432    -0.040890088431699    -1.038333007451660
    -0.049648740920169     0.069074175107067    -0.034057766891947
    -0.923494425467897    -0.054644434845919    -0.862655061156620
   2  15
     0.051921605200847    -0.044782653542512     0.044677201880459
    -0.042616249754007    -0.777741634401883     1.052742045065004
     0.062461052250107     0.938027261398079    -0.884313213870893
   2  16
     0.044622559809039     0.017314546444453     0.015579729523180
     0.017565953911487    -0.060810270806395    -0.001851732873968
     0.014492686791766    -0.002382353163337     0.045410050211160
   2  17
     0.008060349815927     0.014358526702956     0.006790424771882
     0.014162886654421    -0.036442235202675     0.000601528415489
     0.005742799672333    -0.000171892500961     0.026371970807760
   2  18
    -0.582964913276896     0.547019493997971     0.016880877291417
     0.546373749560027    -0.598339218042866    -0.016489821694479
     0.015818833636656    -0.017540548874408     0.043943230898256
   2  19
    -0.172108675892720     0.002228931586928     0.000196039987826
     0.002329490014519     0.040386995637691    -0.016477389025545
    -0.000987777041926    -0.017157036885655     0.053199402053353
   2  20
    -1.217732173114120     1.378991370600398    -0.030950231625840
     1.378971038908154    -1.244101884616587     0.029635270546281
    -0.031953179049900     0.029073453486165     0.131971402896333
   2  21
    -0.991574935066832     0.019287348612941    -1.123960931501884
     0.010213123840802     0.099031328612312     0.039441810137368
    -1.122921128423604     0.052867499638061    -0.997414265505258
   2  22
    -0.029882807736872     0.017548963131525     0.004837292831872
     0.014837405984178     0.001131943677613    -0.020673665939866
    -0.001443321265242    -0.007773683934432     0.008741635842285
   2  23
    -0.011838170760983     0.019691263538734     0.011495328823379
     0.028427214724806    -0.027027395008211    -0.006016745549126
     0.011832291565394    -0.015300285900949    -0.023387277878931
   2  24
    -0.012466756088693    -0.001218792811945    -0.015962181565539
    -0.011458429679016     0.006937228275918     0.002813073097156
    -0.018083745987568     0.014286538800913    -0.017713885273277
   2  25
     0.120743863966665     0.006170574914680    -0.033372388988648
     0.020956937381608    -0.996183836381942     1.158229107788034
    -0.033156994702669     1.128641959107479    -0.987853543784298
   2  26
     0.000895507540011    -0.010273895370141    -0.013129073720904
    -0.011623541396297    -0.017729278665199    -0.011070359063338
    -0.005877562611059    -0.020509479162651    -0.031430440196510
   2  27
     0.136090071314999    -0.015887525161393     0.003972550365623
    -0.003371563667776    -0.892475408461463    -1.078756653725166
     0.011128220165417    -1.063153023853749    -0.912392359200665
   2  28
    -0.902015654462374    -0.005597979711472     1.073205459825386
    -0.007926906191967     0.139448182975336     0.005660577106552
     1.058358309373192    -0.003494662141638    -0.923547067550775
   2  29
    -0.041464219413704     0.009110678724251     0.003377765621029
     0.009456902553655    -0.006446918700208     0.020071696931683
     0.019110179614437     0.001351791664513    -0.019827463714008
   2  30
     0.016673933819892     0.020972900587607     0.005784898888433
     0.010644884451985     0.004412228277301     0.003491352291182
    -0.010164180388283     0.014470711852654    -0.054806022481192
   3   1
    -0.010966514206405     0.022813399497699    -0.013170924300600
    -0.020266012941415     0.037487250011617     0.001767814331090
    -0.011106649022036     0.002114211933573     0.037542863175455
   3   2
    -0.874611936000743    -1.010748585454574     0.016880793024405
    -0.814055913692885    -0.905215895754255     0.034562088185937
    -0.025154157739800    -0.002320038205757     0.016008401773256
   3   3
     7.073478463189812     0.120855922853438    -0.009255891997854
     0.124251667090029     6.960834453123899    -0.061732607133272
     0.022674241681301    -0.036416236667627     7.354842122885582
   3   4
    -0.874661132212961    -0.814423614675652    -0.023935283699738
    -1.010728558185943    -0.905452542396708    -0.001017809806638
     0.015766574011373     0.033556003815374     0.015967264558408
   3   5
    -0.011048587939947    -0.020520574036551    -0.009772210699479
     0.022485770381242     0.037695774318033     0.003302070428208
    -0.014290765860166     0.000826930931966     0.037541952498106
   3   6
     0.050457112943100     0.003029727331907    -0.017117561180216
     0.009905342238303     0.039199808692336     0.027632350636525
     0.009735444175017    -0.003574225417455    -0.084264522555666
   3   7
    -0.080767263460846    -0.034176659204829     0.078258385627929
    -0.018261485419723    -0.028148478278359    -0.017737119426726
     0.032521030316984     0.007838477859827    -0.062586110317614
   3   8
    -0.957210171697033    -0.084568181144906     1.098971423410542
    -0.069329124308398     0.062371731323754     0.087775042538604
     1.010092830905823     0.124791901661726    -0.910444205199538
   3   9
     0.059733604461544    -0.065019443924521    -0.049743200033362
    -0.088585158750182    -0.934245131156826    -1.134198932576975
    -0.110142799672356    -1.029285878884043    -0.901669947988046
   3  10
    -0.019833704811188    -0.021945435120764     0.004464426564070
    -0.040472185231085    -0.070485317670544    -0.064674367769501
    -0.001321757881938    -0.039063911687338    -0.070911273005619
   3  11
     0.051921605200847    -0.044782653542512     0.044677201880459
    -0.042616249754007    -0.777741634401883     1.052742045065004
     0.062461052250107     0.938027261398079    -0.884313213870893
   3  12
     0.039641012443377    -0.027539118196110    -0.028240487855028
    -0.036571145526602     0.003790255275677     0.037289159231859
    -0.013931140680346     0.010918970836110     0.032726032826311
   3  13
    -0.004047763443231     0.026159145109406     0.043987202515153
     0.042005978533523    -0.029837703684428    -0.061718399839403
     0.031841149331910    -0.048580864224873    -0.082307283605556
   3  14
    -0.037935221152219    -0.027960750613268    -0.022415929168567
    -0.027673500630078     0.028879324263335     0.021457930207320
     0.002453663897024     0.002602624507752     0.023258391177187
   3  15
    -0.769186983333432    -0.040890088431699    -1.038333007451660
    -0.049648740920169     0.069074175107067    -0.034057766891947
    -0.923494425467897    -0.054644434845919    -0.862655061156620
   3  16
    -1.217732173114120     1.378991370600398    -0.030950231625840
     1.378971038908154    -1.244101884616587     0.029635270546281
    -0.031953179049900     0.029073453486165     0.131971402896333
   3  17
     0.044622559809039     0.017314546444453     0.015579729523180
     0.017565953911487    -0.060810270806395    -0.001851732873968
     0.014492686791766    -0.002382353163337     0.045410050211160
   3  18
     0.008060349815927     0.014358526702956     0.006790424771882
     0.014162886654421    -0.036442235202675     0.000601528415489
     0.005742799672333    -0.000171892500961     0.026371970807760
   3  19
    -0.582964913276896     0.547019493997971     0.016880877291417
     0.546373749560027    -0.598339218042866    -0.016489821694479
     0.015818833636656    -0.017540548874408     0.043943230898256
   3  20
    -0.172108675892720     0.002228931586928     0.000196039987826
     0.002329490014519     0.040386995637691    -0.016477389025545
    -0.000987777041926    -0.017157036885655     0.053199402053353
   3  21
     0.120743863966665     0.006170574914680    -0.033372388988648
     0.020956937381608    -0.996183836381942     1.158229107788034
    -0.033156994702669     1.128641959107479    -0.987853543784298
   3  22
    -0.991574935066832     0.019287348612941    -1.123960931501884
     0.010213123840802     0.099031328612312     0.039441810137368
    -1.122921128423604     0.052867499638061    -0.997414265505258
   3  23
    -0.029882807736872     0.017548963131525     0.004837292831872
     0.014837405984178     0.001131943677613    -0.020673665939866
    -0.001443321265242    -0.007773683934432     0.008741635842285
   3  24
    -0.011838170760983     0.019691263538734     0.011495328823379
     0.028427214724806    -0.027027395008211    -0.006016745549126
     0.011832291565394    -0.015300285900949    -0.023387277878931
   3  25
    -0.012466756088693    -0.001218792811945    -0.015962181565539
    -0.011458429679016     0.006937228275918     0.002813073097156
    -0.018083745987568     0.014286538800913    -0.017713885273277
   3  26
     0.016673933819892     0.020972900587607     0.005784898888433
     0.010644884451985     0.004412228277301     0.003491352291182
    -0.010164180388283     0.014470711852654    -0.054806022481192
   3  27
     0.000895507540011    -0.010273895370141    -0.013129073720904
    -0.011623541396297    -0.017729278665199    -0.011070359063338
    -0.005877562611059    -0.020509479162651    -0.031430440196510
   3  28
     0.136090071314999    -0.015887525161393     0.003972550365623
    -0.003371563667776    -0.892475408461463    -1.078756653725166
     0.011128220165417    -1.063153023853749    -0.912392359200665
   3  29
    -0.902015654462374    -0.005597979711472     1.073205459825386
    -0.007926906191967     0.139448182975336     0.005660577106552
     1.058358309373192    -0.003494662141638    -0.923547067550775
   3  30
    -0.041464219413704     0.009110678724251     0.003377765621029
     0.009456902553655    -0.006446918700208     0.020071696931683
     0.019110179614437     0.001351791664513    -0.019827463714008
   4   1
    -0.011048587939947    -0.020520574036551    -0.009772210699479
     0.022485770381242     0.037695774318033     0.003302070428208
    -0.014290765860166     0.000826930931966     0.037541952498106
   4   2
    -0.010966514206405     0.022813399497699    -0.013170924300600
    -0.020266012941415     0.037487250011617     0.001767814331090
    -0.011106649022036     0.002114211933573     0.037542863175455
   4   3
    -0.874611936000743    -1.010748585454574     0.016880793024405
    -0.814055913692885    -0.905215895754255     0.034562088185937
    -0.025154157739800    -0.002320038205757     0.016008401773256
   4   4
     7.073478463189812     0.120855922853438    -0.009255891997854
     0.124251667090029     6.960834453123899    -0.061732607133272
     0.022674241681301    -0.036416236667627     7.354842122885582
   4   5
    -0.874661132212961    -0.814423614675652    -0.023935283699738
    -1.010728558185943    -0.905452542396708    -0.001017809806638
     0.015766574011373     0.033556003815374     0.015967264558408
   4   6
    -0.019833704811188    -0.021945435120764     0.004464426564070
    -0.040472185231085    -0.070485317670544    -0.064674367769501
    -0.001321757881938    -0.039063911687338    -0.070911273005619
   4   7
     0.050457112943100     0.003029727331907    -0.017117561180216
     0.009905342238303     0.039199808692336     0.027632350636525
     0.009735444175017    -0.003574225417455    -0.084264522555666
   4   8
    -0.080767263460846    -0.034176659204829     0.078258385627929
    -0.018261485419723    -0.028148478278359    -0.017737119426726
     0.032521030316984     0.007838477859827    -0.062586110317614
   4   9
    -0.957210171697033    -0.084568181144906     1.098971423410542
    -0.069329124308398     0.062371731323754     0.087775042538604
     1.010092830905823     0.124791901661726    -0.910444205199538
   4  10
     0.059733604461544    -0.065019443924521    -0.049743200033362
    -0.088585158750182    -0.934245131156826    -1.134198932576975
    -0.110142799672356    -1.029285878884043    -0.901669947988046
   4  11
    -0.769186983333432    -0.040890088431699    -1.038333007451660
    -0.049648740920169     0.069074175107067    -0.034057766891947
    -0.923494425467897    -0.054644434845919    -0.862655061156620
   4  12
     0.051921605200847    -0.044782653542512     0.044677201880459
    -0.042616249754007    -0.777741634401883     1.052742045065004
     0.062461052250107     0.938027261398079    -0.884313213870893
   4  13
     0.039641012443377    -0.027539118196110    -0.028240487855028
    -0.036571145526602     0.003790255275677     0.037289159231859
    -0.013931140680346     0.010918970836110     0.032726032826311
   4  14
    -0.004047763443231     0.026159145109406     0.043987202515153
     0.042005978533523    -0.029837703684428    -0.061718399839403
     0.031841149331910    -0.048580864224873    -0.082307283605556
   4  15
    -0.037935221152219    -0.027960750613268    -0.022415929168567
    -0.027673500630078     0.028879324263335     0.021457930207320
     0.002453663897024     0.002602624507752     0.023258391177187
   4  16
    -0.172108675892720     0.002228931586928     0.000196039987826
     0.002329490014519     0.040386995637691    -0.016477389025545
    -0.000987777041926    -0.017157036885655     0.053199402053353
   4  17
    -1.217732173114120     1.378991370600398    -0.030950231625840
     1.378971038908154    -1.244101884616587     0.029635270546281
    -0.031953179049900     0.029073453486165     0.131971402896333
   4  18
     0.044622559809039     0.017314546444453     0.015579729523180
     0.017565953911487    -0.060810270806395    -0.001851732873968
     0.014492686791766    -0.002382353163337     0.045410050211160
   4  19
     0.008060349815927     0.014358526702956     0.006790424771882
     0.014162886654421    -0.036442235202675     0.000601528415489
     0.005742799672333    -0.000171892500961     0.026371970807760
   4  20
    -0.582964913276896     0.547019493997971     0.016880877291417
     0.546373749560027    -0.598339218042866    -0.016489821694479
     0.015818833636656    -0.017540548874408     0.043943230898256
   4  21
    -0.012466756088693    -0.001218792811945    -0.015962181565539
    -0.011458429679016     0.006937228275918     0.002813073097156
    -0.018083745987568     0.014286538800913    -0.017713885273277
   4  22
     0.120743863966665     0.006170574914680    -0.033372388988648
     0.020956937381608    -0.996183836381942     1.158229107788034
    -0.033156994702669     1.128641959107479    -0.987853543784298
   4  23
    -0.991574935066832     0.019287348612941    -1.123960931501884
     0.010213123840802     0.099031328612312     0.039441810137368
    -1.122921128423604     0.052867499638061    -0.997414265505258
   4  24
    -0.029882807736872     0.017548963131525     0.004837292831872
     0.014837405984178     0.001131943677613    -0.020673665939866
    -0.001443321265242    -0.007773683934432     0.008741635842285
   4  25
    -0.011838170760983     0.019691263538734     0.011495328823379
     0.028427214724806    -0.027027395008211    -0.006016745549126
     0.011832291565394    -0.015300285900949    -0.023387277878931
   4  26
    -0.041464219413704     0.009110678724251     0.003377765621029
     0.009456902553655    -0.006446918700208     0.020071696931683
     0.019110179614437     0.001351791664513    -0.019827463714008
   4  27
     0.016673933819892     0.020972900587607     0.005784898888433
     0.010644884451985     0.004412228277301     0.003491352291182
    -0.010164180388283     0.014470711852654    -0.054806022481192
   4  28
     0.000895507540011    -0.010273895370141    -0.013129073720904
    -0.011623541396297    -0.017729278665199    -0.011070359063338
    -0.005877562611059    -0.020509479162651    -0.031430440196510
   4  29
     0.136090071314999    -0.015887525161393     0.003972550365623
    -0.003371563667776    -0.892475408461463    -1.078756653725166
     0.011128220165417    -1.063153023853749    -0.912392359200665
   4  30
    -0.902015654462374    -0.005597979711472     1.073205459825386
    -0.007926906191967     0.139448182975336     0.005660577106552
     1.058358309373192    -0.003494662141638    -0.923547067550775
   5   1
    -0.874661132212961    -0.814423614675652    -0.023935283699738
    -1.010728558185943    -0.905452542396708    -0.001017809806638
     0.015766574011373     0.033556003815374     0.015967264558408
   5   2
    -0.011048587939947    -0.020520574036551    -0.009772210699479
     0.022485770381242     0.037695774318033     0.003302070428208
    -0.014290765860166     0.000826930931966     0.037541952498106
   5   3
    -0.010966514206405     0.022813399497699    -0.013170924300600
    -0.020266012941415     0.037487250011617     0.001767814331090
    -0.011106649022036     0.002114211933573     0.037542863175455
   5   4
    -0.874611936000743    -1.010748585454574     0.016880793024405
    -0.814055913692885    -0.905215895754255     0.034562088185937
    -0.025154157739800    -0.002320038205757     0.016008401773256
   5   5
     7.073478463189812     0.120855922853438    -0.009255891997854
     0.124251667090029     6.960834453123899    -0.061732607133272
     0.022674241681301    -0.036416236667627     7.354842122885582
   5   6
     0.059733604461544    -0.065019443924521    -0.049743200033362
    -0.088585158750182    -0.934245131156826    -1.134198932576975
    -0.110142799672356    -1.029285878884043    -0.901669947988046
   5   7
    -0.019833704811188    -0.021945435120764     0.004464426564070
    -0.040472185231085    -0.070485317670544    -0.064674367769501
    -0.001321757881938    -0.039063911687338    -0.070911273005619
   5   8
     0.050457112943100     0.003029727331907    -0.017117561180216
     0.009905342238303     0.039199808692336     0.027632350636525
     0.009735444175017    -0.003574225417455    -0.084264522555666
   5   9
    -0.080767263460846    -0.034176659204829     0.078258385627929
    -0.018261485419723    -0.028148478278359    -0.017737119426726
     0.032521030316984     0.007838477859827    -0.062586110317614
   5  10
    -0.957210171697033    -0.084568181144906     1.098971423410542
    -0.069329124308398     0.062371731323754     0.087775042538604
     1.010092830905823     0.124791901661726    -0.910444205199538
   5  11
    -0.037935221152219    -0.027960750613268    -0.022415929168567
    -0.027673500630078     0.028879324263335     0.021457930207320
     0.002453663897024     0.002602624507752     0.023258391177187
   5  12
    -0.769186983333432    -0.040890088431699    -1.038333007451660
    -0.049648740920169     0.069074175107067    -0.034057766891947
    -0.923494425467897    -0.054644434845919    -0.862655061156620
   5  13
     0.051921605200847    -0.044782653542512     0.044677201880459
    -0.042616249754007    -0.777741634401883     1.052742045065004
     0.062461052250107     0.938027261398079    -0.884313213870893
   5  14
     0.039641012443377    -0.027539118196110    -0.028240487855028
    -0.036571145526602     0.003790255275677     0.037289159231859
    -0.013931140680346     0.010918970836110     0.032726032826311
   5  15
    -0.004047763443231     0.026159145109406     0.043987202515153
     0.042005978533523    -0.029837703684428    -0.061718399839403
     0.031841149331910    -0.048580864224873    -0.082307283605556
   5  16
    -0.582964913276896     0.547019493997971     0.016880877291417
     0.546373749560027    -0.598339218042866    -0.016489821694479
     0.015818833636656    -0.017540548874408     0.043943230898256
   5  17
    -0.172108675892720     0.002228931586928     0.000196039987826
     0.002329490014519     0.040386995637691    -0.016477389025545
    -0.000987777041926    -0.017157036885655     0.053199402053353
   5  18
    -1.217732173114120     1.378991370600398    -0.030950231625840
     1.378971038908154    -1.244101884616587     0.029635270546281
    -0.031953179049900     0.029073453486165     0.131971402896333
   5  19
     0.044622559809039     0.017314546444453     0.015579729523180
     0.017565953911487    -0.060810270806395    -0.001851732873968
     0.014492686791766    -0.002382353163337     0.045410050211160
   5  20
     0.008060349815927     0.014358526702956     0.006790424771882
     0.014162886654421    -0.036442235202675     0.000601528415489
     0.005742799672333    -0.000171892500961     0.026371970807760
   5  21
    -0.011838170760983     0.019691263538734     0.011495328823379
     0.028427214724806    -0.027027395008211    -0.006016745549126
     0.011832291565394    -0.015300285900949    -0.023387277878931
   5  22
    -0.012466756088693    -0.001218792811945    -0.015962181565539
    -0.011458429679016     0.006937228275918     0.002813073097156
    -0.018083745987568     0.014286538800913    -0.017713885273277
   5  23
     0.120743863966665     0.006170574914680    -0.033372388988648
     0.020956937381608    -0.996183836381942     1.158229107788034