30
Lattice="2.014584697571441 -4.002030884938548 6.065885720050046 7.967695869131494 -0.0139920157930244 0.0208968649879248 -3.9786641792293587 5.966343467062575 6.0245463781458355" Properties=Z:I:1:pos:R:3:vasp_force:R:3 uuid=7ffa1ec5-4fde-440f-8cff-3d0c7fedbe6a vasp_virial="0.08551057412939674 -0.09721359804493367 0.02796021996410408 -0.09721359804493367 -0.007583295834670749 -0.06526847746442814 0.02796021996410408 -0.06526847746442814 -0.10670844770912631" vasp_energy=-132.4418593 pbc="T T T"
      46       3.97973072      -1.99311308       6.09743637      -0.01738900       0.03900300      -0.05744500 
      46       5.96548786       0.00027187       6.08948359      -0.00195200      -0.00142800       0.00244800 
      46      -0.01377944       2.00234195       6.06867760       0.00122500       0.00130600       0.00285700 
      46       1.97464914       3.99042001       6.06876848       0.00064000       0.00194000       0.00118800 
      46       9.95632658      -3.98987627       6.11019870      -0.00054400      -0.00022200       0.00137700 
      46       2.00113029      -2.00046356       8.07948955      -0.00536500      -0.00014100       0.00579600 
      46       3.98955886      -0.01238550       8.07958043       0.00026900       0.00406000       0.00251300 
      46       5.97798744       1.97569257       8.07967131      -0.00022900      -0.00017900       0.00162700 
      46      -0.00127986       3.97776265       8.05886532      -0.00002600      -0.00005600       0.00160000 
      46       5.96581289      -0.00050275       2.03440982      -0.00055100      -0.00049500       0.00170000 
      46       0.01863837       3.95777996       4.02139124      -0.00060900      -0.00011300      -0.00073700 
      46       4.02165164       1.94382714      10.08736784       0.00037900       0.00059700      -0.00154100 
      46       2.02104852      -2.02044625       4.04201548       0.00894900       0.00118100       0.00863100 
      46       4.00947709      -0.03236819       4.04210635      -0.00072200      -0.01108300       0.01086900 
      46       5.99790567       1.95570988       4.04219723      -0.00016300      -0.00053900      -0.00118200 
      46      -1.95729112       3.94512303       6.01148767      -0.00159200      -0.00248200      -0.00196500 
      46       0.03113746       5.93320109       6.01157855       0.00321100      -0.00641800      -0.00190200 
      46       8.01281490      -2.04709520       6.05300877      -0.00010600      -0.00146500      -0.00198400 
      46       2.03354761      -0.04502512       6.03220278       0.00977000      -0.01143900      -0.00392300 
      46       4.02197618       1.94305295       6.03229366      -0.00129500      -0.00182000      -0.00294900 
      47       0.02493109      -0.02458570       8.04284965       0.00026100      -0.00054600      -0.00193900 
      47       2.01335966       1.96349236       8.04294053      -0.00072500      -0.00109900      -0.00149300 
      47       4.00178823       3.95157043       8.04303141       0.00029300      -0.00138400      -0.00121200 
      47       2.00118511      -0.01270296       1.99767904       0.00039300      -0.01593700       0.01230400 
      47       6.00419838      -2.02665578       8.06365564       0.01172600      -0.00087600       0.00985000 
      47       0.01858341       1.97001945      10.10320137      -0.00077900       0.00507800       0.00377200 
      47       5.98567617      -2.00824595       4.07874587      -0.00622700       0.00208700       0.00595500 
      47       0.00640887      -0.00617587       4.05793988       0.00085700       0.00096900       0.00185200 
      47       1.99483744       1.98190219       4.05803076       0.00004200       0.00043400       0.00216500 
      47       3.98326601       3.96998026       4.05812163       0.00026200       0.00106600       0.00177000 
30
Lattice="2.014584697571441 -4.002030884938548 6.065885720050046 7.967695869131494 -0.0139920157930244 0.0208968649879248 -3.9786641792293587 5.966343467062575 6.0245463781458355" Properties=Z:I:1:pos:R:3:vasp_force:R:3 uuid=00541b8a-85ee-48e8-9ff4-31d62cc1e843 vasp_virial="0.10049739584611862 -0.11033980075204253 0.022072754015811696 -0.11033980075204253 0.006330898498087432 -0.05654064626474582 0.022072754015811696 -0.05654064626474582 -0.10859003987987828" vasp_energy=-132.44184799 pbc="T T T"
      46       3.97705929      -1.98780619       6.08939271      -0.00776500       0.00155600       0.01162300 
      46       5.96548786       0.00027187       6.08948359       0.00039500       0.00128500       0.00285400 
      46      -0.01377944       2.00234195       6.06867760       0.00146400       0.00113600       0.00323800 
      46       1.97464914       3.99042001       6.06876848       0.00043200       0.00139900       0.00145400 
      46       9.95632658      -3.98987627       6.11019870       0.00184100       0.00096100       0.00030300 
      46       1.99113034      -2.00044600       8.07946333       0.07415000      -0.00049300      -0.00014800 
      46       3.98955886      -0.01238550       8.07958043      -0.00842400      -0.00818300       0.00126200 
      46       5.97798744       1.97569257       8.07967131      -0.00011600      -0.00032400       0.00131200 
      46      -0.00127986       3.97776265       8.05886532       0.00010200       0.00004600       0.00075800 
      46       5.96581289      -0.00050275       2.03440982      -0.00911100      -0.00987600       0.00166600 
      46       0.01863837       3.95777996       4.02139124      -0.00070700      -0.00104700      -0.00212500 
      46       4.02165164       1.94382714      10.08736784       0.00026900       0.00028500      -0.00145800 
      46       2.02104852      -2.02044625       4.04201548       0.00060700       0.00026300      -0.00084600 
      46       4.00947709      -0.03236819       4.04210635      -0.00098900       0.00015900      -0.00091700 
      46       5.99790567       1.95570988       4.04219723      -0.01033400      -0.00143200       0.00895000 
      46      -1.95729112       3.94512303       6.01148767      -0.00164200      -0.00185100      -0.00138700 
      46       0.03113746       5.93320109       6.01157855      -0.00157600      -0.00215300      -0.00133700 
      46       8.01281490      -2.04709520       6.05300877      -0.00842100      -0.00234300      -0.01087000 
      46       2.03354761      -0.04502512       6.03220278      -0.00040500      -0.00147300      -0.00250000 
      46       4.02197618       1.94305295       6.03229366      -0.00074800      -0.00185900      -0.00263100 
      47       0.02493109      -0.02458570       8.04284965      -0.01171400       0.01318900      -0.00201700 
      47       2.01335966       1.96349236       8.04294053      -0.00074900      -0.00104100      -0.00150100 
      47       4.00178823       3.95157043       8.04303141       0.00025900      -0.00132800      -0.00130600 
      47       2.00118511      -0.01270296       1.99767904      -0.00837900       0.00866400      -0.00223900 
      47       6.00419838      -2.02665578       8.06365564      -0.00156200      -0.00077000      -0.00167400 
      47       0.01858341       1.97001945      10.10320137      -0.00037500       0.00129500       0.00227100 
      47       5.98567617      -2.00824595       4.07874587      -0.00045900       0.00125800       0.00143500 
      47       0.00640887      -0.00617587       4.05793988       0.00190100       0.00103900       0.00150800 
      47       1.99483744       1.98190219       4.05803076      -0.00793500       0.00059300      -0.00734200 
      47       3.98326601       3.96998026       4.05812163      -0.00001100       0.00104600       0.00166400 
30
Lattice="2.014584697571441 -4.002030884938548 6.065885720050046 7.967695869131494 -0.0139920157930244 0.0208968649879248 -3.9786641792293587 5.966343467062575 6.0245463781458355" Properties=Z:I:1:pos:R:3:vasp_force:R:3 uuid=6d0b3ea5-c651-4a5e-91a4-4ec056576645 vasp_virial="0.09888246243841908 -0.11131355466206545 0.022956622949524802 -0.11131355466206545 0.004808846232574694 -0.05863796237864134 0.022956622949524802 -0.05863796237864134 -0.11332398196552815" vasp_energy=-132.44185595 pbc="T T T"
      46       3.97705929      -1.98780619       6.08939271      -0.00875600       0.00106500       0.01091500 
      46       5.96548786       0.00027187       6.08948359       0.00056600       0.00173300       0.00302600 
      46      -0.01377944       2.00234195       6.06867760       0.00126700       0.00070700       0.00374300 
      46       1.97464914       3.99042001       6.06876848       0.00065500       0.00255600       0.00216800 
      46       9.95632658      -3.98987627       6.11019870       0.00219100       0.01449500       0.01301900 
      46       1.99688231      -1.99409335       8.08592190       0.03286500      -0.04812300      -0.04732400 
      46       3.98955886      -0.01238550       8.07958043       0.00220800       0.00218100       0.00157500 
      46       5.97798744       1.97569257       8.07967131      -0.00033400      -0.00012700       0.00100300 
      46      -0.00127986       3.97776265       8.05886532       0.00028200      -0.00013600       0.00049800 
      46       5.96581289      -0.00050275       2.03440982       0.00156600       0.00116300       0.00188000 
      46       0.01863837       3.95777996       4.02139124       0.00062200       0.01259900       0.01097900 
      46       4.02165164       1.94382714      10.08736784       0.00038800       0.00119000      -0.00059200 
      46       2.02104852      -2.02044625       4.04201548       0.00029200      -0.00013600       0.00002500 
      46       4.00947709      -0.03236819       4.04210635      -0.00066300       0.00053500      -0.00071900 
      46       5.99790567       1.95570988       4.04219723      -0.01036900      -0.00174000       0.00818800 
      46      -1.95729112       3.94512303       6.01148767      -0.00207400      -0.00144600      -0.00073100 
      46       0.03113746       5.93320109       6.01157855      -0.00102400      -0.00226800      -0.00152900 
      46       8.01281490      -2.04709520       6.05300877       0.00308200      -0.00220100       0.00054300 
      46       2.03354761      -0.04502512       6.03220278      -0.00070500      -0.00301700      -0.00312000 
      46       4.02197618       1.94305295       6.03229366      -0.00062000      -0.00185900      -0.00284200 
      47       0.02493109      -0.02458570       8.04284965      -0.01363300       0.01278900      -0.00318800 
      47       2.01335966       1.96349236       8.04294053      -0.00096700      -0.00051800      -0.00174800 
      47       4.00178823       3.95157043       8.04303141       0.00010800      -0.00078100      -0.00160400 
      47       2.00118511      -0.01270296       1.99767904      -0.00970000       0.00852900      -0.00284500 
      47       6.00419838      -2.02665578       8.06365564      -0.00085700      -0.00092500      -0.00180600 
      47       0.01858341       1.97001945      10.10320137      -0.00050600       0.00149700       0.00247000 
      47       5.98567617      -2.00824595       4.07874587      -0.00016800       0.00116800       0.00165600 
      47       0.00640887      -0.00617587       4.05793988       0.00133600       0.00004100       0.00116300 
      47       1.99483744       1.98190219       4.05803076       0.00285400      -0.00035600       0.00331800 
      47       3.98326601       3.96998026       4.05812163       0.00009400       0.00138700       0.00187800 
30
Lattice="2.014584697571441 -4.002030884938548 6.065885720050046 7.967695869131494 -0.0139920157930244 0.0208968649879248 -3.9786641792293587 5.966343467062575 6.0245463781458355" Properties=Z:I:1:pos:R:3:vasp_force:R:3 uuid=8638fd78-b2d2-441c-a93a-9f009665af24 vasp_virial="0.09129017810611736 -0.09970041572283833 0.01898670316250831 -0.09970041572283833 -0.0029362425594537073 -0.05450624963426719 0.01898670316250831 -0.05450624963426719 -0.10362539302169992" vasp_energy=-132.44179478 pbc="T T T"
      46       3.97705929      -1.98780619       6.08939271       0.01241800       0.00350200      -0.00784600 
      46       5.96548786       0.00027187       6.08948359       0.00180100       0.00122800       0.00200200 
      46      -0.01377944       2.00234195       6.06867760       0.00063000       0.00140000       0.00249600 
      46       1.97464914       3.99042001       6.06876848       0.00057700       0.00108600       0.00072900 
      46       9.95632658      -3.98987627       6.11019870       0.00019200      -0.01132300      -0.01081400 
      46       2.00537827      -2.00683377       8.07305720      -0.03221400       0.04849800       0.04975100 
      46       3.98955886      -0.01238550       8.07958043      -0.00219200      -0.00108800       0.00075300 
      46       5.97798744       1.97569257       8.07967131       0.00014900      -0.00023600       0.00181300 
      46      -0.00127986       3.97776265       8.05886532      -0.00003400      -0.00043000       0.00096000 
      46       5.96581289      -0.00050275       2.03440982      -0.00240300      -0.00189700       0.00113200 
      46       0.01863837       3.95777996       4.02139124      -0.00173400      -0.01262600      -0.01233800 
      46       4.02165164       1.94382714      10.08736784       0.00049100      -0.00040900      -0.00244000 
      46       2.02104852      -2.02044625       4.04201548      -0.00049300       0.00072600      -0.00151300 
      46       4.00947709      -0.03236819       4.04210635       0.00087300      -0.00015800      -0.00214500 
      46       5.99790567       1.95570988       4.04219723       0.01002300       0.00056100      -0.01021400 
      46      -1.95729112       3.94512303       6.01148767      -0.00116200      -0.00304900      -0.00271700 
      46       0.03113746       5.93320109       6.01157855      -0.00136400      -0.00147000      -0.00126000 
      46       8.01281490      -2.04709520       6.05300877      -0.00428600      -0.00141200      -0.00344800 
      46       2.03354761      -0.04502512       6.03220278      -0.00117100       0.00090800      -0.00312400 
      46       4.02197618       1.94305295       6.03229366      -0.00168900      -0.00110000      -0.00221000 
      47       0.02493109      -0.02458570       8.04284965       0.01334000      -0.01350600      -0.00040800 
      47       2.01335966       1.96349236       8.04294053      -0.00067900      -0.00154500      -0.00148700 
      47       4.00178823       3.95157043       8.04303141       0.00022400      -0.00184000      -0.00120400 
      47       2.00118511      -0.01270296       1.99767904       0.01077000      -0.01133000      -0.00144600 
      47       6.00419838      -2.02665578       8.06365564       0.00036600      -0.00099500      -0.00131700 
      47       0.01858341       1.97001945      10.10320137      -0.00013700       0.00095700       0.00184100 
      47       5.98567617      -2.00824595       4.07874587      -0.00011700       0.00146700       0.00112200 
      47       0.00640887      -0.00617587       4.05793988       0.00035600       0.00205300       0.00200700 
      47       1.99483744       1.98190219       4.05803076      -0.00296600       0.00148600       0.00011600 
      47       3.98326601       3.96998026       4.05812163       0.00043400       0.00054000       0.00121000 
30
Lattice="2.014584697571441 -4.002030884938548 6.065885720050046 7.967695869131494 -0.0139920157930244 0.0208968649879248 -3.9786641792293587 5.966343467062575 6.0245463781458355" Properties=Z:I:1:pos:R:3:vasp_force:R:3 uuid=522f7db0-0096-4b6e-8c9c-9d878e025f57 vasp_virial="0.10319394513541286 -0.10903646859555033 0.019175461612758907 -0.10903646859555033 0.00940196852200585 -0.05695411715577094 0.019175461612758907 -0.05695411715577094 -0.10156403089832836" vasp_energy=-132.44183786 pbc="T T T"
      46       3.97705929      -1.98780619       6.08939271       0.00139800       0.00247400       0.00206200 
      46       5.96548786       0.00027187       6.08948359       0.00112800       0.00128300       0.00236600 
      46      -0.01377944       2.00234195       6.06867760       0.00015900      -0.01172500       0.01534800 
      46       1.97464914       3.99042001       6.06876848       0.01097500       0.00262700       0.01074200 
      46       9.95632658      -3.98987627       6.11019870       0.00133100       0.00191400       0.00121900 
      46       2.00113029      -2.00046356       8.07948955       0.00118300       0.00318400       0.00310800 
      46       3.98955886      -0.01238550       8.07958043      -0.00567800      -0.00038800       0.00651800 
      46       5.97798744       1.97569257       8.07967131      -0.00022100      -0.00041200       0.00187800 
      46      -0.00127986       3.97776265       8.05886532      -0.00000600      -0.00014900       0.00200500 
      46       5.96581289      -0.00050275       2.03440982      -0.00048400      -0.00026800       0.00185300 
      46       0.02130981       3.95247307       4.02943490      -0.01972800       0.03885400      -0.05999700 
      46       4.02165164       1.94382714      10.08736784      -0.00208900      -0.00164000      -0.00108400 
      46       2.02104852      -2.02044625       4.04201548      -0.00008500       0.00008000      -0.00115100 
      46       4.00947709      -0.03236819       4.04210635       0.00027000       0.00023700      -0.00170400 
      46       5.99790567       1.95570988       4.04219723      -0.00277700      -0.00273400      -0.00079800 
      46      -1.95729112       3.94512303       6.01148767      -0.00843400      -0.00243200       0.00360200 
      46       0.03113746       5.93320109       6.01157855      -0.00134200       0.00255300       0.00070300 
      46       8.01281490      -2.04709520       6.05300877      -0.00072100      -0.00157600      -0.00107900 
      46       2.03354761      -0.04502512       6.03220278      -0.00093200      -0.00110000      -0.00247900 
      46       4.02197618       1.94305295       6.03229366      -0.00178100      -0.00144300      -0.00204300 
      47       0.02493109      -0.02458570       8.04284965       0.00976800      -0.00066000       0.00772600 
      47       2.01335966       1.96349236       8.04294053      -0.00082400      -0.01279300       0.01011200 
      47       4.00178823       3.95157043       8.04303141       0.00027400      -0.00141900      -0.00112200 
      47       2.00118511      -0.01270296       1.99767904       0.00023200      -0.00115900      -0.00196600 
      47       6.00419838      -2.02665578       8.06365564      -0.00022300      -0.00084100      -0.00162000 
      47       0.01858341       1.97001945      10.10320137       0.00723700      -0.00620300       0.00139400 
      47       5.98567617      -2.00824595       4.07874587      -0.00010100       0.00117900       0.00125900 
      47       0.00640887      -0.00617587       4.05793988       0.00072300       0.00071200       0.00142400 
      47       1.99483744       1.98190219       4.05803076       0.01039400      -0.00946000       0.00054100 
      47       3.98326601       3.96998026       4.05812163       0.00035000       0.00130200       0.00118300 
30
Lattice="2.014584697571441 -4.002030884938548 6.065885720050046 7.967695869131494 -0.0139920157930244 0.0208968649879248 -3.9786641792293587 5.966343467062575 6.0245463781458355" Properties=Z:I:1:pos:R:3:vasp_force:R:3 uuid=33d970cc-7232-4107-9c94-946d748d5cc3 vasp_virial="0.08681091012001196 -0.10042848403094777 0.024322874589433875 -0.10042848403094777 -0.00728367924697139 -0.059794482407160864 0.024322874589433875 -0.059794482407160864 -0.11348877108876278" vasp_energy=-132.44184431 pbc="T T T"
      46       3.97705929      -1.98780619       6.08939271       0.00180600       0.00200500       0.00143000 
      46       5.96548786       0.00027187       6.08948359       0.00117700       0.00162700       0.00270800 
      46      -0.01377944       2.00234195       6.06867760       0.00162500       0.01322700      -0.00849400 
      46       1.97464914       3.99042001       6.06876848      -0.00941700       0.00105900      -0.00747900 
      46       9.95632658      -3.98987627       6.11019870       0.00106100       0.00178200       0.00158600 
      46       2.00113029      -2.00046356       8.07948955       0.00000300      -0.00266200      -0.00118500 
      46       3.98955886      -0.01238550       8.07958043       0.00575000       0.00145700      -0.00419600 
      46       5.97798744       1.97569257       8.07967131      -0.00001100       0.00002900       0.00100800 
      46      -0.00127986       3.97776265       8.05886532       0.00019200      -0.00045400      -0.00051300 
      46       5.96581289      -0.00050275       2.03440982      -0.00041200      -0.00051500       0.00121100 
      46       2.03055163      -0.03894404      10.07923331       0.01951800      -0.03867800       0.05715500 
      46       4.02165164       1.94382714      10.08736784       0.00291600       0.00235900      -0.00189100 
      46       2.02104852      -2.02044625       4.04201548      -0.00016800       0.00048600      -0.00029700 
      46       4.00947709      -0.03236819       4.04210635      -0.00011100       0.00009100      -0.00111700 
      46       5.99790567       1.95570988       4.04219723       0.00273300       0.00163100      -0.00152500 
      46      -1.95729112       3.94512303       6.01148767       0.00502600      -0.00206500      -0.00697000 
      46       0.03113746       5.93320109       6.01157855      -0.00113700      -0.00626200      -0.00345600 
      46       8.01281490      -2.04709520       6.05300877      -0.00052400      -0.00210100      -0.00179900 
      46       2.03354761      -0.04502512       6.03220278      -0.00097700      -0.00103100      -0.00373300 
      46       4.02197618       1.94305295       6.03229366      -0.00059900      -0.00153300      -0.00295400 
      47       0.02493109      -0.02458570       8.04284965      -0.01005000      -0.00057700      -0.01149300 
      47       2.01335966       1.96349236       8.04294053      -0.00083700       0.01128500      -0.01384300 
      47       4.00178823       3.95157043       8.04303141       0.00000900      -0.00123300      -0.00163400 
      47       2.00118511      -0.01270296       1.99767904       0.00040300      -0.00131400      -0.00233500 
      47       6.00419838      -2.02665578       8.06365564      -0.00031900      -0.00111500      -0.00144900 
      47       0.01858341       1.97001945      10.10320137      -0.00814300       0.00880800       0.00304600 
      47       5.98567617      -2.00824595       4.07874587      -0.00024500       0.00142300       0.00156600 
      47       0.00640887      -0.00617587       4.05793988       0.00090300       0.00132600       0.00182200 
      47       1.99483744       1.98190219       4.05803076      -0.01030600       0.01035000       0.00287600 
      47       3.98326601       3.96998026       4.05812163       0.00013500       0.00059300       0.00195700 
30
Lattice="2.014584697571441 -4.002030884938548 6.065885720050046 7.967695869131494 -0.0139920157930244 0.0208968649879248 -3.9786641792293587 5.966343467062575 6.0245463781458355" Properties=Z:I:1:pos:R:3:vasp_force:R:3 uuid=815157cd-d4c0-47c1-b45b-facfb270daff vasp_virial="0.10049140351436464 -0.11033980075204253 0.022072754015811696 -0.11033980075204253 0.006324906166333445 -0.05654064626474582 0.022072754015811696 -0.05654064626474582 -0.10859303604575528" vasp_energy=-132.44184798 pbc="T T T"
      46       3.97705929      -1.98780619       6.08939271       0.00164300       0.00185000       0.00138900 
      46       5.96548786       0.00027187       6.08948359       0.00074900       0.00185800       0.00263300 
      46      -0.01377944       2.00234195       6.06867760       0.00040600       0.00147200       0.00250200 
      46       1.97464914       3.99042001       6.06876848       0.00842200       0.00234100       0.01087100 
      46       9.95632658      -3.98987627       6.11019870       0.00157700       0.00215200       0.00133900 
      46       2.00113029      -2.00046356       8.07948955       0.00070500       0.00104900       0.00212300 
      46       3.98955886      -0.01238550       8.07958043       0.01033300       0.00143300      -0.00895300 
      46       5.97798744       1.97569257       8.07967131       0.00098800      -0.00015800       0.00091400 
      46      -0.00127986       3.97776265       8.05886532      -0.00060900      -0.00026100       0.00084400 
      46       5.96581289      -0.00050275       2.03440982      -0.00027100      -0.00028300       0.00145600 
      46       0.02863832       3.95776240       4.02141747      -0.07415200       0.00049500       0.00014600 
      46       4.02165164       1.94382714      10.08736784       0.00910900       0.00987700      -0.00166800 
      46       2.02104852      -2.02044625       4.04201548      -0.00010400      -0.00004500      -0.00076100 
      46       4.00947709      -0.03236819       4.04210635       0.00011500       0.00032500      -0.00131400 
      46       5.99790567       1.95570988       4.04219723       0.00842200       0.00818400      -0.00126400 
      46      -1.95729112       3.94512303       6.01148767       0.00776600      -0.00155700      -0.01162100 
      46       0.03113746       5.93320109       6.01157855      -0.00184000      -0.00096200      -0.00030200 
      46       8.01281490      -2.04709520       6.05300877      -0.00043100      -0.00140000      -0.00145300 
      46       2.03354761      -0.04502512       6.03220278      -0.00146200      -0.00113700      -0.00323700 
      46       4.02197618       1.94305295       6.03229366      -0.00039400      -0.00128600      -0.00285300 
      47       0.02493109      -0.02458570       8.04284965       0.00793500      -0.00059400       0.00734200 
      47       2.01335966       1.96349236       8.04294053      -0.00190100      -0.00103900      -0.00150800 
      47       4.00178823       3.95157043       8.04303141       0.00045900      -0.00125800      -0.00143500 
      47       2.00118511      -0.01270296       1.99767904       0.00037600      -0.00129500      -0.00227000 
      47       6.00419838      -2.02665578       8.06365564       0.00001100      -0.00104600      -0.00166300 
      47       0.01858341       1.97001945      10.10320137       0.00838000      -0.00866400       0.00224000 
      47       5.98567617      -2.00824595       4.07874587      -0.00025900       0.00132800       0.00130600 
      47       0.00640887      -0.00617587       4.05793988       0.00074900       0.00104000       0.00150200 
      47       1.99483744       1.98190219       4.05803076       0.01171400      -0.01319000       0.00201800 
      47       3.98326601       3.96998026       4.05812163       0.00156300       0.00077000       0.00167500 
30
Lattice="2.014584697571441 -4.002030884938548 6.065885720050046 7.967695869131494 -0.0139920157930244 0.0208968649879248 -3.9786641792293587 5.966343467062575 6.0245463781458355" Properties=Z:I:1:pos:R:3:vasp_force:R:3 uuid=275d53f5-be5d-4f30-b951-50e3eea7a1df vasp_virial="0.08835992787841765 -0.09966745789819141 0.0198316219398205 -0.09966745789819141 -0.005327182929294584 -0.05816157200419935 0.0198316219398205 -0.05816157200419935 -0.10741554285609681" vasp_energy=-132.44181214 pbc="T T T"
      46       3.97705929      -1.98780619       6.08939271       0.00153200       0.00264800       0.00205100 
      46       5.96548786       0.00027187       6.08948359       0.00151500       0.00108600       0.00238800 
      46      -0.01377944       2.00234195       6.06867760       0.00142600       0.00066700       0.00370300 
      46       1.97464914       3.99042001       6.06876848      -0.00703900       0.00131000      -0.00761200 
      46       9.95632658      -3.98987627       6.11019870       0.00078500       0.00156200       0.00141800 
      46       2.00113029      -2.00046356       8.07948955       0.00044500      -0.00045600      -0.00022900 
      46       3.98955886      -0.01238550       8.07958043      -0.01014500      -0.00031100       0.01090300 
      46       5.97798744       1.97569257       8.07967131      -0.00123200      -0.00019700       0.00191700 
      46      -0.00127986       3.97776265       8.05886532       0.00076400      -0.00032700       0.00061400 
      46       5.96581289      -0.00050275       2.03440982      -0.00065400      -0.00048100       0.00156400 
      46       0.00863842       3.95779752       4.02136502       0.07491400      -0.00086000      -0.00179200 
      46       4.02165164       1.94382714      10.08736784      -0.00806900      -0.00875400      -0.00137700 
      46       2.02104852      -2.02044625       4.04201548      -0.00019900       0.00063200      -0.00072000 
      46       4.00947709      -0.03236819       4.04210635       0.00001800       0.00002700      -0.00155000 
      46       5.99790567       1.95570988       4.04219723      -0.00875800      -0.00966000      -0.00108300 
      46      -1.95729112       3.94512303       6.01148767      -0.01135000      -0.00296500       0.00856400 
      46       0.03113746       5.93320109       6.01157855      -0.00067200      -0.00278600      -0.00248800 
      46       8.01281490      -2.04709520       6.05300877      -0.00085100      -0.00224700      -0.00146300 
      46       2.03354761      -0.04502512       6.03220278      -0.00048200      -0.00097800      -0.00302500 
      46       4.02197618       1.94305295       6.03229366      -0.00203800      -0.00168200      -0.00217500 
      47       0.02493109      -0.02458570       8.04284965      -0.00811300      -0.00055500      -0.01117300 