  30
   1   1
     6.838230506820122     0.000357583878486     0.015327923844600
    -0.024106189085030     6.796330360905640     0.013193187957351
     0.002122805756638    -0.005658771672593     7.520161544755745
   1   2
    -0.791647264731294    -0.659458983883995    -0.022948016072240
    -0.651749129090502    -0.626325956387151    -0.016006621065506
     0.021576332531863     0.008829631335704     0.091124286539298
   1   3
    -0.630723779973406     0.650586325710116     0.006760485575296
     0.649668023254206    -0.788920285289436    -0.018057893509114
    -0.009870229299866     0.026443292638562     0.084720708540627
   1   4
    -0.630747277260538     0.648633964856395    -0.010092816287517
     0.651722613951135    -0.788968910576111     0.025553563928841
     0.007420958674874    -0.017621001987419     0.084790120764178
   1   5
    -0.791590186159572    -0.652617970044833     0.020968014268421
    -0.658354841036001    -0.626307545533492     0.007785696968464
    -0.022540423855681    -0.015526675221379     0.091042331326960
   1   6
    -1.093476518410301    -0.014928881581742    -1.216302696402242
    -0.014125302366434     0.007852546190406     0.000289128224626
    -1.215692772168034     0.000796470590375    -0.997998855589609
   1   7
    -1.066418314417079    -0.026455348406932     1.213215339317527
    -0.025699214721936     0.010588108386990    -0.011222043054876
     1.213421575602424    -0.010652308896037    -0.994973450434486
   1   8
     0.006830670000189     0.024619710707275     0.002323278964561
     0.025292977359241    -1.082327839999315    -1.213355194367304
     0.002798800099792    -1.212431670607710    -0.987749845561248
   1   9
    -0.106496019248456    -0.001304768377806    -0.002327127478164
    -0.000266554210001    -0.102192697719273     0.006275218098703
    -0.001864227619063     0.007071748374785    -0.050862899521586
   1  10
     0.013531896569191     0.029560913646153    -0.003433884367244
     0.030238218183308    -1.078292009805109     1.212283491002480
    -0.002947845454192     1.212541181602316    -0.993986869088043
   1  11
    -0.039308555784820    -0.002429813821785    -0.023167931479596
    -0.003483985789119     0.006885780805044     0.009822572332000
    -0.023186048229611     0.002713683257561    -0.042125018890586
   1  12
     0.043769772546328    -0.000173938845780    -0.003368484635935
     0.004181204691598     0.042797629823013     0.002304990119742
    -0.001925630088872    -0.000466053366156    -0.016709403449465
   1  13
    -0.037934472469743    -0.007157843287915     0.020581368436308
     0.003608932086326     0.010691968692363    -0.013915110605066
     0.024966208756113    -0.002582783944850    -0.052493536944142
   1  14
     0.005990651598234     0.005577695873964     0.013957396631008
     0.001007259371136    -0.036907292159127     0.022216299989134
     0.005701002151700     0.024910850816370    -0.038813639947206
   1  15
     0.008722630065108     0.004827720125432    -0.010156882777804
    -0.000420377324561    -0.031640375316525    -0.020453445488435
    -0.004912020337737    -0.024427189746374    -0.042054052051573
   1  16
    -0.003608224432323    -0.006367095256354    -0.001865804169659
    -0.001508615562679    -0.005259384500854    -0.006821495486937
     0.003134299806140     0.001541439343026     0.006926849054885
   1  17
     0.000765908659110     0.000514456690990    -0.004252800852230
     0.008132141323969     0.005522318908076     0.009000209466600
    -0.004730494967335     0.005118425732085     0.008042889913181
   1  18
    -0.008434084387846    -0.005461676254389     0.014190301832817
     0.003298314315113    -0.004019514613091    -0.001215125200313
     0.009654096864169    -0.000229402923949     0.006993472732929
   1  19
     0.002798187143877     0.007171002888724    -0.001739005200872
    -0.006529933505652     0.002697337407189    -0.003447289692588
    -0.002391484896890    -0.005136757365546     0.012478264841640
   1  20
    -0.005538767839387     0.003732154378738    -0.009064800995895
     0.000683074585282    -0.005638641093570    -0.001430722133763
    -0.004902426095926    -0.000994115371827    -0.000351661430706
   1  21
     0.016840467212642    -0.001759700127886    -0.000431198114353
     0.005251731143865     0.018490355298255    -0.001702249069485
     0.002266012939996     0.001559173501534    -0.011299569405014
   1  22
     0.000567118267471     0.004389504202013     0.027593129790826
     0.002120263181701    -0.006040172505140     0.010165669556936
     0.011050667253162     0.005839335012892    -0.006075347023524
   1  23
    -0.004341247957232    -0.001647577627151    -0.014869792908936
    -0.006129418472803     0.005313636500513     0.021265821883944
    -0.007637305156332     0.009062190757618    -0.002125677470730
   1  24
    -0.006968908492133    -0.003008413857704     0.013527639567554
    -0.005085813288475     0.000209146839698    -0.018772593790797
     0.007925319689058    -0.007436230447490    -0.003232477214162
   1  25
     0.005003859632450     0.002063981368067    -0.026839832058863
     0.007922601879417     0.000431394361738    -0.013160376773032
    -0.013743944795873    -0.008716531265339     0.000972720385145
   1  26
    -0.943739539575731    -0.000050106240968     1.082810888804202
    -0.004231518740968     0.096271021457528    -0.004797544436475
     0.978622039336690    -0.006264979929488    -0.914317705452988
   1  27
    -0.944051397697823    -0.005010233476547    -1.075925474276844
    -0.003968191147152     0.096215609878003     0.002734404548157
    -0.973077308591431    -0.000662339517181    -0.906809984601659
   1  28
     0.094823530480087     0.008728526998998     0.002269350102926
     0.002935022730402    -0.947841558951317     1.080845552191243
    -0.002580539429665     0.978298671146139    -0.923350748725206
   1  29
    -0.027776958010873    -0.008401037386420    -0.003320932300135
     0.004890384570070    -0.027089693821936     0.000898843988316
    -0.000405398535768     0.003689667458931    -0.009870659357701
   1  30
     0.094927424323178     0.005469847152857    -0.003416372148479
     0.004706163700274    -0.942525337183011    -1.080277577866503
     0.001748849463680    -0.969608949304558    -0.912051892013820
   2   1
    -0.791590186159572    -0.652617970044833     0.020968014268422
    -0.658354841036001    -0.626307545533492     0.007785696968464
    -0.022540423855681    -0.015526675221379     0.091042331326960
   2   2
     6.838230506820122     0.000357583878486     0.015327923844600
    -0.024106189085030     6.796330360905638     0.013193187957351
     0.002122805756638    -0.005658771672593     7.520161544755745
   2   3
    -0.791647264731294    -0.659458983883995    -0.022948016072240
    -0.651749129090502    -0.626325956387150    -0.016006621065506
     0.021576332531863     0.008829631335704     0.091124286539298
   2   4
    -0.630723779973406     0.650586325710116     0.006760485575296
     0.649668023254206    -0.788920285289436    -0.018057893509114
    -0.009870229299866     0.026443292638562     0.084720708540627
   2   5
    -0.630747277260538     0.648633964856395    -0.010092816287517
     0.651722613951135    -0.788968910576111     0.025553563928841
     0.007420958674874    -0.017621001987419     0.084790120764178
   2   6
     0.013531896569191     0.029560913646153    -0.003433884367244
     0.030238218183308    -1.078292009805109     1.212283491002479
    -0.002947845454192     1.212541181602316    -0.993986869088043
   2   7
    -1.093476518410301    -0.014928881581742    -1.216302696402242
    -0.014125302366434     0.007852546190406     0.000289128224626
    -1.215692772168034     0.000796470590375    -0.997998855589609
   2   8
    -1.066418314417079    -0.026455348406932     1.213215339317527
    -0.025699214721936     0.010588108386990    -0.011222043054876
     1.213421575602424    -0.010652308896037    -0.994973450434486
   2   9
     0.006830670000189     0.024619710707275     0.002323278964561
     0.025292977359241    -1.082327839999315    -1.213355194367304
     0.002798800099792    -1.212431670607710    -0.987749845561248
   2  10
    -0.106496019248456    -0.001304768377806    -0.002327127478164
    -0.000266554210001    -0.102192697719273     0.006275218098703
    -0.001864227619063     0.007071748374785    -0.050862899521586
   2  11
     0.008722630065108     0.004827720125432    -0.010156882777804
    -0.000420377324561    -0.031640375316525    -0.020453445488435
    -0.004912020337737    -0.024427189746374    -0.042054052051573
   2  12
    -0.039308555784820    -0.002429813821785    -0.023167931479596
    -0.003483985789119     0.006885780805044     0.009822572332000
    -0.023186048229611     0.002713683257561    -0.042125018890586
   2  13
     0.043769772546328    -0.000173938845780    -0.003368484635935
     0.004181204691598     0.042797629823013     0.002304990119742
    -0.001925630088872    -0.000466053366156    -0.016709403449465
   2  14
    -0.037934472469743    -0.007157843287915     0.020581368436308
     0.003608932086326     0.010691968692363    -0.013915110605066
     0.024966208756113    -0.002582783944850    -0.052493536944142
   2  15
     0.005990651598234     0.005577695873964     0.013957396631008
     0.001007259371136    -0.036907292159127     0.022216299989134
     0.005701002151700     0.024910850816370    -0.038813639947206
   2  16
    -0.005538767839387     0.003732154378738    -0.009064800995895
     0.000683074585282    -0.005638641093570    -0.001430722133763
    -0.004902426095926    -0.000994115371827    -0.000351661430706
   2  17
    -0.003608224432323    -0.006367095256354    -0.001865804169659
    -0.001508615562679    -0.005259384500854    -0.006821495486937
     0.003134299806140     0.001541439343026     0.006926849054885
   2  18
     0.000765908659110     0.000514456690990    -0.004252800852230
     0.008132141323969     0.005522318908076     0.009000209466600
    -0.004730494967335     0.005118425732085     0.008042889913181
   2  19
    -0.008434084387846    -0.005461676254389     0.014190301832817
     0.003298314315113    -0.004019514613091    -0.001215125200313
     0.009654096864169    -0.000229402923949     0.006993472732929
   2  20
     0.002798187143877     0.007171002888724    -0.001739005200872
    -0.006529933505652     0.002697337407189    -0.003447289692588
    -0.002391484896890    -0.005136757365546     0.012478264841640
   2  21
     0.005003859632450     0.002063981368067    -0.026839832058863
     0.007922601879417     0.000431394361738    -0.013160376773032
    -0.013743944795873    -0.008716531265339     0.000972720385145
   2  22
     0.016840467212642    -0.001759700127886    -0.000431198114353
     0.005251731143865     0.018490355298255    -0.001702249069485
     0.002266012939996     0.001559173501534    -0.011299569405014
   2  23
     0.000567118267471     0.004389504202013     0.027593129790826
     0.002120263181701    -0.006040172505140     0.010165669556936
     0.011050667253162     0.005839335012892    -0.006075347023524
   2  24
    -0.004341247957232    -0.001647577627151    -0.014869792908936
    -0.006129418472803     0.005313636500513     0.021265821883944
    -0.007637305156332     0.009062190757618    -0.002125677470730
   2  25
    -0.006968908492133    -0.003008413857704     0.013527639567554
    -0.005085813288475     0.000209146839698    -0.018772593790797
     0.007925319689058    -0.007436230447490    -0.003232477214162
   2  26
     0.094927424323178     0.005469847152857    -0.003416372148479
     0.004706163700274    -0.942525337183011    -1.080277577866503
     0.001748849463680    -0.969608949304558    -0.912051892013820
   2  27
    -0.943739539575731    -0.000050106240968     1.082810888804202
    -0.004231518740968     0.096271021457528    -0.004797544436475
     0.978622039336690    -0.006264979929488    -0.914317705452988
   2  28
    -0.944051397697823    -0.005010233476547    -1.075925474276844
    -0.003968191147153     0.096215609878003     0.002734404548157
    -0.973077308591431    -0.000662339517181    -0.906809984601659
   2  29
     0.094823530480087     0.008728526998998     0.002269350102926
     0.002935022730402    -0.947841558951317     1.080845552191243
    -0.002580539429665     0.978298671146139    -0.923350748725206
   2  30
    -0.027776958010873    -0.008401037386420    -0.003320932300135
     0.004890384570070    -0.027089693821936     0.000898843988316
    -0.000405398535768     0.003689667458931    -0.009870659357701
   3   1
    -0.630747277260538     0.648633964856395    -0.010092816287517
     0.651722613951135    -0.788968910576111     0.025553563928841
     0.007420958674874    -0.017621001987419     0.084790120764178
   3   2
    -0.791590186159572    -0.652617970044833     0.020968014268422
    -0.658354841036001    -0.626307545533492     0.007785696968464
    -0.022540423855681    -0.015526675221379     0.091042331326960
   3   3
     6.838230506820122     0.000357583878486     0.015327923844600
    -0.024106189085030     6.796330360905638     0.013193187957351
     0.002122805756638    -0.005658771672593     7.520161544755745
   3   4
    -0.791647264731294    -0.659458983883995    -0.022948016072240
    -0.651749129090502    -0.626325956387150    -0.016006621065506
     0.021576332531863     0.008829631335704     0.091124286539298
   3   5
    -0.630723779973406     0.650586325710116     0.006760485575296
     0.649668023254206    -0.788920285289436    -0.018057893509114
    -0.009870229299866     0.026443292638562     0.084720708540627
   3   6
    -0.106496019248456    -0.001304768377806    -0.002327127478164
    -0.000266554210001    -0.102192697719273     0.006275218098703
    -0.001864227619063     0.007071748374785    -0.050862899521586
   3   7
     0.013531896569191     0.029560913646153    -0.003433884367244
     0.030238218183308    -1.078292009805109     1.212283491002479
    -0.002947845454192     1.212541181602316    -0.993986869088043
   3   8
    -1.093476518410301    -0.014928881581742    -1.216302696402242
    -0.014125302366434     0.007852546190406     0.000289128224626
    -1.215692772168034     0.000796470590375    -0.997998855589609
   3   9
    -1.066418314417079    -0.026455348406932     1.213215339317527
    -0.025699214721936     0.010588108386990    -0.011222043054876
     1.213421575602424    -0.010652308896037    -0.994973450434486
   3  10
     0.006830670000189     0.024619710707275     0.002323278964561
     0.025292977359241    -1.082327839999315    -1.213355194367304
     0.002798800099792    -1.212431670607710    -0.987749845561248
   3  11
     0.005990651598234     0.005577695873964     0.013957396631008
     0.001007259371136    -0.036907292159127     0.022216299989134
     0.005701002151700     0.024910850816370    -0.038813639947206
   3  12
     0.008722630065108     0.004827720125432    -0.010156882777804
    -0.000420377324561    -0.031640375316525    -0.020453445488435
    -0.004912020337737    -0.024427189746374    -0.042054052051573
   3  13
    -0.039308555784820    -0.002429813821785    -0.023167931479596
    -0.003483985789119     0.006885780805044     0.009822572332000
    -0.023186048229611     0.002713683257561    -0.042125018890586
   3  14
     0.043769772546328    -0.000173938845780    -0.003368484635935
     0.004181204691598     0.042797629823013     0.002304990119742
    -0.001925630088872    -0.000466053366156    -0.016709403449465
   3  15
    -0.037934472469743    -0.007157843287915     0.020581368436308
     0.003608932086326     0.010691968692363    -0.013915110605066
     0.024966208756113    -0.002582783944850    -0.052493536944142
   3  16
     0.002798187143877     0.007171002888724    -0.001739005200872
    -0.006529933505652     0.002697337407189    -0.003447289692588
    -0.002391484896890    -0.005136757365546     0.012478264841640
   3  17
    -0.005538767839387     0.003732154378738    -0.009064800995895
     0.000683074585282    -0.005638641093570    -0.001430722133763
    -0.004902426095926    -0.000994115371827    -0.000351661430706
   3  18
    -0.003608224432323    -0.006367095256354    -0.001865804169659
    -0.001508615562679    -0.005259384500854    -0.006821495486937
     0.003134299806140     0.001541439343026     0.006926849054885
   3  19
     0.000765908659110     0.000514456690990    -0.004252800852230
     0.008132141323969     0.005522318908076     0.009000209466600
    -0.004730494967335     0.005118425732085     0.008042889913181
   3  20
    -0.008434084387846    -0.005461676254389     0.014190301832817
     0.003298314315113    -0.004019514613091    -0.001215125200313
     0.009654096864169    -0.000229402923949     0.006993472732929
   3  21
    -0.006968908492133    -0.003008413857704     0.013527639567554
    -0.005085813288475     0.000209146839698    -0.018772593790797
     0.007925319689058    -0.007436230447490    -0.003232477214162
   3  22
     0.005003859632450     0.002063981368067    -0.026839832058863
     0.007922601879417     0.000431394361738    -0.013160376773032
    -0.013743944795873    -0.008716531265339     0.000972720385145
   3  23
     0.016840467212642    -0.001759700127886    -0.000431198114353
     0.005251731143865     0.018490355298255    -0.001702249069485
     0.002266012939996     0.001559173501534    -0.011299569405014
   3  24
     0.000567118267471     0.004389504202013     0.027593129790826
     0.002120263181701    -0.006040172505140     0.010165669556936
     0.011050667253162     0.005839335012892    -0.006075347023524
   3  25
    -0.004341247957232    -0.001647577627151    -0.014869792908936
    -0.006129418472803     0.005313636500513     0.021265821883944
    -0.007637305156332     0.009062190757618    -0.002125677470730
   3  26
    -0.027776958010873    -0.008401037386420    -0.003320932300135
     0.004890384570070    -0.027089693821936     0.000898843988316
    -0.000405398535768     0.003689667458931    -0.009870659357701
   3  27
     0.094927424323178     0.005469847152857    -0.003416372148479
     0.004706163700274    -0.942525337183011    -1.080277577866503
     0.001748849463680    -0.969608949304558    -0.912051892013820
   3  28
    -0.943739539575731    -0.000050106240968     1.082810888804202
    -0.004231518740968     0.096271021457528    -0.004797544436475
     0.978622039336690    -0.006264979929488    -0.914317705452988
   3  29
    -0.944051397697823    -0.005010233476547    -1.075925474276844
    -0.003968191147153     0.096215609878003     0.002734404548157
    -0.973077308591431    -0.000662339517181    -0.906809984601659
   3  30
     0.094823530480087     0.008728526998998     0.002269350102926
     0.002935022730402    -0.947841558951317     1.080845552191243
    -0.002580539429665     0.978298671146139    -0.923350748725206
   4   1
    -0.630723779973406     0.650586325710116     0.006760485575296
     0.649668023254206    -0.788920285289436    -0.018057893509114
    -0.009870229299866     0.026443292638562     0.084720708540627
   4   2
    -0.630747277260538     0.648633964856395    -0.010092816287517
     0.651722613951135    -0.788968910576111     0.025553563928841
     0.007420958674874    -0.017621001987419     0.084790120764178
   4   3
    -0.791590186159572    -0.652617970044833     0.020968014268422
    -0.658354841036001    -0.626307545533492     0.007785696968464
    -0.022540423855681    -0.015526675221379     0.091042331326960
   4   4
     6.838230506820122     0.000357583878486     0.015327923844600
    -0.024106189085030     6.796330360905638     0.013193187957351
     0.002122805756638    -0.005658771672593     7.520161544755745
   4   5
    -0.791647264731294    -0.659458983883995    -0.022948016072240
    -0.651749129090502    -0.626325956387150    -0.016006621065506
     0.021576332531863     0.008829631335704     0.091124286539298
   4   6
     0.006830670000189     0.024619710707275     0.002323278964561
     0.025292977359241    -1.082327839999315    -1.213355194367304
     0.002798800099792    -1.212431670607710    -0.987749845561248
   4   7
    -0.106496019248456    -0.001304768377806    -0.002327127478164
    -0.000266554210001    -0.102192697719273     0.006275218098703
    -0.001864227619063     0.007071748374785    -0.050862899521586
   4   8
     0.013531896569191     0.029560913646153    -0.003433884367244
     0.030238218183308    -1.078292009805109     1.212283491002479
    -0.002947845454192     1.212541181602316    -0.993986869088043
   4   9
    -1.093476518410301    -0.014928881581742    -1.216302696402242
    -0.014125302366434     0.007852546190406     0.000289128224626
    -1.215692772168034     0.000796470590375    -0.997998855589609
   4  10
    -1.066418314417079    -0.026455348406932     1.213215339317527
    -0.025699214721936     0.010588108386990    -0.011222043054876
     1.213421575602424    -0.010652308896037    -0.994973450434486
   4  11
    -0.037934472469743    -0.007157843287915     0.020581368436308
     0.003608932086326     0.010691968692363    -0.013915110605066
     0.024966208756113    -0.002582783944850    -0.052493536944142
   4  12
     0.005990651598234     0.005577695873964     0.013957396631008
     0.001007259371136    -0.036907292159127     0.022216299989134
     0.005701002151700     0.024910850816370    -0.038813639947206
   4  13
     0.008722630065108     0.004827720125432    -0.010156882777804
    -0.000420377324561    -0.031640375316525    -0.020453445488435
    -0.004912020337737    -0.024427189746374    -0.042054052051573
   4  14
    -0.039308555784820    -0.002429813821785    -0.023167931479596
    -0.003483985789119     0.006885780805044     0.009822572332000
    -0.023186048229611     0.002713683257561    -0.042125018890586
   4  15
     0.043769772546328    -0.000173938845780    -0.003368484635935
     0.004181204691598     0.042797629823013     0.002304990119742
    -0.001925630088872    -0.000466053366156    -0.016709403449465
   4  16
    -0.008434084387846    -0.005461676254389     0.014190301832817
     0.003298314315113    -0.004019514613091    -0.001215125200313
     0.009654096864169    -0.000229402923949     0.006993472732929
   4  17
     0.002798187143877     0.007171002888724    -0.001739005200872
    -0.006529933505652     0.002697337407189    -0.003447289692588
    -0.002391484896890    -0.005136757365546     0.012478264841640
   4  18
    -0.005538767839387     0.003732154378738    -0.009064800995895
     0.000683074585282    -0.005638641093570    -0.001430722133763
    -0.004902426095926    -0.000994115371827    -0.000351661430706
   4  19
    -0.003608224432323    -0.006367095256354    -0.001865804169659
    -0.001508615562679    -0.005259384500854    -0.006821495486937
     0.003134299806140     0.001541439343026     0.006926849054885
   4  20
     0.000765908659110     0.000514456690990    -0.004252800852230
     0.008132141323969     0.005522318908076     0.009000209466600
    -0.004730494967335     0.005118425732085     0.008042889913181
   4  21
    -0.004341247957232    -0.001647577627151    -0.014869792908936
    -0.006129418472803     0.005313636500513     0.021265821883944
    -0.007637305156332     0.009062190757618    -0.002125677470730
   4  22
    -0.006968908492133    -0.003008413857704     0.013527639567554
    -0.005085813288475     0.000209146839698    -0.018772593790797
     0.007925319689058    -0.007436230447490    -0.003232477214162
   4  23
     0.005003859632450     0.002063981368067    -0.026839832058863
     0.007922601879417     0.000431394361738    -0.013160376773032
    -0.013743944795873    -0.008716531265339     0.000972720385145
   4  24
     0.016840467212642    -0.001759700127886    -0.000431198114353
     0.005251731143865     0.018490355298255    -0.001702249069485
     0.002266012939996     0.001559173501534    -0.011299569405014
   4  25
     0.000567118267471     0.004389504202013     0.027593129790826
     0.002120263181701    -0.006040172505140     0.010165669556936
     0.011050667253162     0.005839335012892    -0.006075347023524
   4  26
     0.094823530480087     0.008728526998998     0.002269350102926
     0.002935022730402    -0.947841558951317     1.080845552191243
    -0.002580539429665     0.978298671146139    -0.923350748725206
   4  27
    -0.027776958010873    -0.008401037386420    -0.003320932300135
     0.004890384570070    -0.027089693821936     0.000898843988316
    -0.000405398535768     0.003689667458931    -0.009870659357701
   4  28
     0.094927424323178     0.005469847152857    -0.003416372148479
     0.004706163700274    -0.942525337183011    -1.080277577866503
     0.001748849463680    -0.969608949304558    -0.912051892013820
   4  29
    -0.943739539575731    -0.000050106240968     1.082810888804202
    -0.004231518740968     0.096271021457528    -0.004797544436475
     0.978622039336690    -0.006264979929488    -0.914317705452988
   4  30
    -0.944051397697823    -0.005010233476547    -1.075925474276844
    -0.003968191147153     0.096215609878003     0.002734404548157
    -0.973077308591431    -0.000662339517181    -0.906809984601659
   5   1
    -0.791647264731294    -0.659458983883995    -0.022948016072240
    -0.651749129090502    -0.626325956387150    -0.016006621065506
     0.021576332531863     0.008829631335704     0.091124286539298
   5   2
    -0.630723779973406     0.650586325710116     0.006760485575296
     0.649668023254206    -0.788920285289436    -0.018057893509114
    -0.009870229299866     0.026443292638562     0.084720708540627
   5   3
    -0.630747277260538     0.648633964856395    -0.010092816287517
     0.651722613951135    -0.788968910576111     0.025553563928841
     0.007420958674874    -0.017621001987419     0.084790120764178
   5   4
    -0.791590186159572    -0.652617970044833     0.020968014268422
    -0.658354841036001    -0.626307545533492     0.007785696968464
    -0.022540423855681    -0.015526675221379     0.091042331326960
   5   5
     6.838230506820122     0.000357583878486     0.015327923844600
    -0.024106189085030     6.796330360905638     0.013193187957351
     0.002122805756638    -0.005658771672593     7.520161544755745
   5   6
    -1.066418314417079    -0.026455348406932     1.213215339317527
    -0.025699214721936     0.010588108386990    -0.011222043054876
     1.213421575602424    -0.010652308896037    -0.994973450434486
   5   7
     0.006830670000189     0.024619710707275     0.002323278964561
     0.025292977359241    -1.082327839999315    -1.213355194367304
     0.002798800099792    -1.212431670607710    -0.987749845561248
   5   8
    -0.106496019248456    -0.001304768377806    -0.002327127478164
    -0.000266554210001    -0.102192697719273     0.006275218098703
    -0.001864227619063     0.007071748374785    -0.050862899521586
   5   9
     0.013531896569191     0.029560913646153    -0.003433884367244
     0.030238218183308    -1.078292009805109     1.212283491002479
    -0.002947845454192     1.212541181602316    -0.993986869088043
   5  10
    -1.093476518410301    -0.014928881581742    -1.216302696402242
    -0.014125302366434     0.007852546190406     0.000289128224626
    -1.215692772168034     0.000796470590375    -0.997998855589609
   5  11
     0.043769772546328    -0.000173938845780    -0.003368484635935
     0.004181204691598     0.042797629823013     0.002304990119742
    -0.001925630088872    -0.000466053366156    -0.016709403449465
   5  12
    -0.037934472469743    -0.007157843287915     0.020581368436308
     0.003608932086326     0.010691968692363    -0.013915110605066
     0.024966208756113    -0.002582783944850    -0.052493536944142
   5  13
     0.005990651598234     0.005577695873964     0.013957396631008
     0.001007259371136    -0.036907292159127     0.022216299989134
     0.005701002151700     0.024910850816370    -0.038813639947206
   5  14
     0.008722630065108     0.004827720125432    -0.010156882777804
    -0.000420377324561    -0.031640375316525    -0.020453445488435
    -0.004912020337737    -0.024427189746374    -0.042054052051573
   5  15
    -0.039308555784820    -0.002429813821785    -0.023167931479596
    -0.003483985789119     0.006885780805044     0.009822572332000
    -0.023186048229611     0.002713683257561    -0.042125018890586
   5  16
     0.000765908659110     0.000514456690990    -0.004252800852230
     0.008132141323969     0.005522318908076     0.009000209466600
    -0.004730494967335     0.005118425732085     0.008042889913181
   5  17
    -0.008434084387846    -0.005461676254389     0.014190301832817
     0.003298314315113    -0.004019514613091    -0.001215125200313
     0.009654096864169    -0.000229402923949     0.006993472732929
   5  18
     0.002798187143877     0.007171002888724    -0.001739005200872
    -0.006529933505652     0.002697337407189    -0.003447289692588
    -0.002391484896890    -0.005136757365546     0.012478264841640
   5  19
    -0.005538767839387     0.003732154378738    -0.009064800995895
     0.000683074585282    -0.005638641093570    -0.001430722133763
    -0.004902426095926    -0.000994115371827    -0.000351661430706
   5  20
    -0.003608224432323    -0.006367095256354    -0.001865804169659
    -0.001508615562679    -0.005259384500854    -0.006821495486937
     0.003134299806140     0.001541439343026     0.006926849054885
   5  21
     0.000567118267471     0.004389504202013     0.027593129790826
     0.002120263181701    -0.006040172505140     0.010165669556936
     0.011050667253162     0.005839335012892    -0.006075347023524
   5  22
    -0.004341247957232    -0.001647577627151    -0.014869792908936
    -0.006129418472803     0.005313636500513     0.021265821883944
    -0.007637305156332     0.009062190757618    -0.002125677470730
   5  23
    -0.006968908492133    -0.003008413857704     0.013527639567554
    -0.005085813288475     0.000209146839698    -0.018772593790797