30
Lattice="-6.09819626445052 -2.031031840678816 -0.0011389192270063 2.034864362423395 -6.0994665087957864 -0.0003985935767264 2.0341048322316766 2.0337133186700975 12.214940109511721" Properties=Z:I:1:pos:R:3:vasp_force:R:3 uuid=9bc53557-9583-4e74-ad24-0e2edc286d53 vasp_virial="-0.2610420936799237 0.23569122663246897 -0.11770225457267756 0.23569122663246897 0.05058200591347714 0.02001666149048962 -0.11770225457267756 0.02001666149048962 -0.012366660845296985" vasp_energy=-107.35888971 pbc="T T T"
      46      -0.00715684      -4.06825831       4.13640483       0.06170600       0.02225100       0.00562400 
      46      -4.06355984      -4.06382422       4.13580297      -0.01230200      -0.00730600       0.00443300 
      46      -2.03125421      -2.03151818       4.13633826      -0.00677200       0.00502500       0.00542200 
      46       0.00105142       0.00078786       4.13687354      -0.00629400       0.00476100       0.00486200 
      46      -2.02997485      -6.09740445       4.13587132      -0.01172600      -0.00759700       0.00464400 
      46       2.03465174      -4.06612654       6.04123905      -0.00828800      -0.00095500      -0.01468900 
      46      -2.03123889      -4.06485234       6.04063542      -0.00787700      -0.00137400       0.00788200 
      46       0.00106675      -2.03254631       6.04117070       0.00297500      -0.00457800      -0.00825200 
      46      -4.06482389      -2.03127211       6.04056707       0.00198700      -0.00114000      -0.00370100 
      46       0.00234611      -6.09843258       6.04070376       0.00395900      -0.00413300      -0.00050800 
      47      -2.03039234      -6.09742808       8.02785740       0.00049700      -0.00129600      -0.00346000 
      47       0.00191329      -4.06512204       8.02839269       0.00086000      -0.00065600      -0.00360500 
      47       2.03421893      -2.03281600       8.02892797       0.00052600      -0.00133800      -0.00298100 
      47      -2.03167171      -2.03154180       8.02832434       0.00070100      -0.00128200      -0.00348600 
      47       0.00063393       0.00076424       8.02885963       0.00111400      -0.00125700      -0.00293300 
      47       2.03551300      -4.06527200      10.13836479      -0.00010400      -0.00056300      -0.00625500 
      47      -2.03037763      -4.06399780      10.13776116      -0.00011800      -0.00021400      -0.00606200 
      47       0.00192800      -2.03169176      10.13829645       0.00011600      -0.00051400      -0.00592100 
      47       2.03423363       0.00061427      10.13883173       0.00042000      -0.00066000      -0.00559000 
      47      -2.03165700       0.00188847      10.13822810       0.00024400      -0.00065000      -0.00580200 
      47       0.00147645      -4.06592723       0.04016230      -0.00008700       0.00066300       0.00424800 
      47      -4.06441418      -4.06465303       0.03955866      -0.00039400       0.00072200       0.00423400 
      47      -2.03210855      -2.03234700       0.04009395      -0.00020800       0.00019800       0.00440000 
      47       0.00019709      -0.00004096       0.04062924       0.00008300       0.00010700       0.00464300 
      47      -2.03082918      -6.09823327       0.03962701       0.00017400       0.00043700       0.00443600 
      47      -4.06307141      -6.09719635       2.14841152      -0.00996000       0.00176500       0.01380600 
      47      -2.03076577      -4.06489031       2.14894681      -0.01036100       0.00172300      -0.00704200 
      47       0.00153986      -2.03258428       2.14948209       0.00008500      -0.00151300       0.00755300 
      47      -4.06435077      -2.03131008       2.14887846      -0.00128900       0.00132600       0.00353900 
      47       0.00281922      -6.09847055       2.14901515       0.00033100      -0.00194900       0.00056200 
30
Lattice="-6.09819626445052 -2.031031840678816 -0.0011389192270063 2.034864362423395 -6.0994665087957864 -0.0003985935767264 2.0341048322316766 2.0337133186700975 12.214940109511721" Properties=Z:I:1:pos:R:3:vasp_force:R:3 uuid=f8532c5a-4459-429c-9888-befe0564285b vasp_virial="-0.26224567697747864 0.23534149431302243 -0.10507723291481642 0.23534149431302243 0.051927372583780794 0.0134221592868701 -0.10507723291481642 0.0134221592868701 -0.012410771227929891" vasp_energy=-107.35884685 pbc="T T T"
      46       0.00233079      -4.06509841       4.13640660      -0.00694700       0.00079100       0.00141400 
      46      -4.06355984      -4.06382422       4.13580297      -0.00317400       0.01116600      -0.00703800 
      46      -2.03125421      -2.03151818       4.13633826      -0.00314200       0.00224300       0.00532500 
      46       0.00105142       0.00078786       4.13687354      -0.00265900       0.01139700       0.01616600 
      46      -2.02997485      -6.09740445       4.13587132      -0.00508200       0.00065000       0.00834800 
      46       2.03148707      -4.05664051       6.04123967       0.02464900      -0.06571200      -0.00250100 
      46      -2.03123889      -4.06485234       6.04063542       0.00625900       0.00275000      -0.00382800 
      46       0.00106675      -2.03254631       6.04117070      -0.00556900       0.00838500      -0.00473500 
      46      -4.06482389      -2.03127211       6.04056707      -0.00493900       0.00853700      -0.00353200 
      46       0.00234611      -6.09843258       6.04070376       0.00730700       0.00279700      -0.00424400 
      47      -2.03039234      -6.09742808       8.02785740      -0.00207400      -0.00219400      -0.00672400 
      47       0.00191329      -4.06512204       8.02839269      -0.00252000      -0.00170800      -0.00013500 
      47       2.03421893      -2.03281600       8.02892797       0.00113900       0.00777700       0.00724400 
      47      -2.03167171      -2.03154180       8.02832434       0.00049800      -0.00097900      -0.00373300 
      47       0.00063393       0.00076424       8.02885963       0.00128000       0.00769000      -0.01285000 
      47       2.03551300      -4.06527200      10.13836479      -0.00007200      -0.00065600      -0.00622400 
      47      -2.03037763      -4.06399780      10.13776116      -0.00021700      -0.00022400      -0.00603200 
      47       0.00192800      -2.03169176      10.13829645       0.00020200      -0.00045000      -0.00585300 
      47       2.03423363       0.00061427      10.13883173       0.00045100      -0.00078300      -0.00583200 
      47      -2.03165700       0.00188847      10.13822810       0.00026700      -0.00058400      -0.00574500 
      47       0.00147645      -4.06592723       0.04016230      -0.00026900       0.00066000       0.00428900 
      47      -4.06441418      -4.06465303       0.03955866      -0.00043800       0.00077600       0.00390100 
      47      -2.03210855      -2.03234700       0.04009395      -0.00008500       0.00020400       0.00447700 
      47       0.00019709      -0.00004096       0.04062924       0.00009700       0.00016600       0.00460700 
      47      -2.03082918      -6.09823327       0.03962701       0.00002000       0.00037500       0.00461000 
      47      -4.06307141      -6.09719635       2.14841152      -0.00103000       0.00108300       0.00366900 
      47      -2.03076577      -4.06489031       2.14894681      -0.00136300       0.00138700       0.00314500 
      47       0.00153986      -2.03258428       2.14948209      -0.00078700       0.00172200       0.00425400 
      47      -4.06435077      -2.03131008       2.14887846      -0.00103800       0.00186900       0.00337400 
      47       0.00281922      -6.09847055       2.14901515      -0.00076400       0.00086500       0.00418400 
30
Lattice="-6.09819626445052 -2.031031840678816 -0.0011389192270063 2.034864362423395 -6.0994665087957864 -0.0003985935767264 2.0341048322316766 2.0337133186700975 12.214940109511721" Properties=Z:I:1:pos:R:3:vasp_force:R:3 uuid=0e131e79-d252-498f-9e95-7d342ce5fadb vasp_virial="-0.2738593105763996 0.23554944325972038 -0.10949142191972368 0.23554944325972038 0.039894690349847245 0.022241085071834754 -0.10949142191972368 0.022241085071834754 -0.022656982965230728" vasp_energy=-107.35875036 pbc="T T T"
      46       0.00233079      -4.06509841       4.13640660       0.00974100       0.00090200       0.01687200 
      46      -4.06355984      -4.06382422       4.13580297      -0.00297500      -0.00930500       0.01244000 
      46      -2.03125421      -2.03151818       4.13633826      -0.00260200       0.00133300       0.00597700 
      46       0.00105142       0.00078786       4.13687354      -0.00247800       0.01439400       0.01635400 
      46      -2.02997485      -6.09740445       4.13587132      -0.01183400       0.00090400       0.01217800 
      46       2.03627267      -4.06450593       6.05097282      -0.00865100      -0.01098700      -0.07869200 
      46      -2.03123889      -4.06485234       6.04063542       0.00504100       0.00101900      -0.00464600 
      46       0.00106675      -2.03254631       6.04117070       0.00276300      -0.00100200      -0.00519900 
      46      -4.06482389      -2.03127211       6.04056707       0.00305700      -0.00086800      -0.00441700 
      46       0.00234611      -6.09843258       6.04070376       0.00584100       0.00094100      -0.00502800 
      47      -2.03039234      -6.09742808       8.02785740       0.01211600      -0.00147600       0.00754200 
      47       0.00191329      -4.06512204       8.02839269      -0.00766400      -0.00092200       0.00371300 
      47       2.03421893      -2.03281600       8.02892797       0.00069300       0.00984500       0.00775100 
      47      -2.03167171      -2.03154180       8.02832434       0.00068700      -0.00122900      -0.00351300 
      47       0.00063393       0.00076424       8.02885963       0.00089800      -0.00934500       0.00460100 
      47       2.03551300      -4.06527200      10.13836479      -0.00012000      -0.00056000      -0.00602500 
      47      -2.03037763      -4.06399780      10.13776116      -0.00003400      -0.00018800      -0.00591700 
      47       0.00192800      -2.03169176      10.13829645       0.00013300      -0.00040700      -0.00593600 
      47       2.03423363       0.00061427      10.13883173       0.00051100      -0.00086100      -0.00547300 
      47      -2.03165700       0.00188847      10.13822810       0.00018900      -0.00075200      -0.00563700 
      47       0.00147645      -4.06592723       0.04016230      -0.00028100       0.00059300       0.00427900 
      47      -4.06441418      -4.06465303       0.03955866      -0.00034600       0.00068000       0.00403800 
      47      -2.03210855      -2.03234700       0.04009395      -0.00011200       0.00019800       0.00443900 
      47       0.00019709      -0.00004096       0.04062924       0.00008400       0.00012300       0.00456300 
      47      -2.03082918      -6.09823327       0.03962701       0.00013800       0.00032300       0.00472500 
      47      -4.06307141      -6.09719635       2.14841152      -0.00117200       0.00138400       0.00397400 
      47      -2.03076577      -4.06489031       2.14894681      -0.00096800       0.00138500       0.00384100 
      47       0.00153986      -2.03258428       2.14948209      -0.00077000       0.00164500       0.00465200 
      47      -4.06435077      -2.03131008       2.14887846      -0.00110100       0.00126700       0.00396200 
      47       0.00281922      -6.09847055       2.14901515      -0.00078400       0.00096400       0.00458300 
30
Lattice="-6.09819626445052 -2.031031840678816 -0.0011389192270063 2.034864362423395 -6.0994665087957864 -0.0003985935767264 2.0341048322316766 2.0337133186700975 12.214940109511721" Properties=Z:I:1:pos:R:3:vasp_force:R:3 uuid=2a6acec3-15bb-415b-928b-d3deb77eb78d vasp_virial="-0.24830364532386362 0.23505162608429186 -0.10654862924978552 0.23505162608429186 0.06495568916857136 0.02612594948514715 -0.10654862924978552 0.02612594948514715 -0.0012855025795875592" vasp_energy=-107.35889563 pbc="T T T"
      46       0.00233079      -4.06509841       4.13640660      -0.01752700       0.00094300      -0.00659500 
      46      -4.06355984      -4.06382422       4.13580297      -0.00290000       0.01094900      -0.00308800 
      46      -2.03125421      -2.03151818       4.13633826      -0.00299400       0.00118200       0.00490400 
      46       0.00105142       0.00078786       4.13687354      -0.00232900      -0.01259100      -0.00689700 
      46      -2.02997485      -6.09740445       4.13587132       0.00824100       0.00069200      -0.00339200 
      46       2.03303082      -4.06774715       6.03150528       0.01375900       0.00956900       0.07052400 
      46      -2.03123889      -4.06485234       6.04063542      -0.00010500      -0.00337900      -0.00288000 
      46       0.00106675      -2.03254631       6.04117070       0.00296300      -0.00175100      -0.00359800 
      46      -4.06482389      -2.03127211       6.04056707       0.00291800      -0.00075500      -0.00290400 
      46       0.00234611      -6.09843258       6.04070376       0.00157200      -0.00301000      -0.00348000 
      47      -2.03039234      -6.09742808       8.02785740      -0.00988100      -0.00114600      -0.01366300 
      47       0.00191329      -4.06512204       8.02839269       0.00828500      -0.00068500      -0.01067600 
      47       2.03421893      -2.03281600       8.02892797       0.00103900      -0.01199700      -0.01359500 
      47      -2.03167171      -2.03154180       8.02832434       0.00059500      -0.00122500      -0.00380800 
      47       0.00063393       0.00076424       8.02885963       0.00115500       0.00668000      -0.00994200 
      47       2.03551300      -4.06527200      10.13836479      -0.00001400      -0.00042800      -0.00634900 
      47      -2.03037763      -4.06399780      10.13776116      -0.00027100      -0.00030300      -0.00612200 
      47       0.00192800      -2.03169176      10.13829645       0.00023800      -0.00051400      -0.00611100 
      47       2.03423363       0.00061427      10.13883173       0.00031800      -0.00062500      -0.00558800 
      47      -2.03165700       0.00188847      10.13822810       0.00040300      -0.00059700      -0.00572800 
      47       0.00147645      -4.06592723       0.04016230      -0.00024700       0.00063300       0.00429000 
      47      -4.06441418      -4.06465303       0.03955866      -0.00046800       0.00070100       0.00390000 
      47      -2.03210855      -2.03234700       0.04009395      -0.00018100       0.00017700       0.00456900 
      47       0.00019709      -0.00004096       0.04062924       0.00024500       0.00013400       0.00464500 
      47      -2.03082918      -6.09823327       0.03962701       0.00006500       0.00049000       0.00480100 
      47      -4.06307141      -6.09719635       2.14841152      -0.00106400       0.00156000       0.00355000 
      47      -2.03076577      -4.06489031       2.14894681      -0.00156900       0.00150000       0.00288200 
      47       0.00153986      -2.03258428       2.14948209      -0.00084900       0.00112900       0.00363800 
      47      -4.06435077      -2.03131008       2.14887846      -0.00097700       0.00169700       0.00322700 
      47       0.00281922      -6.09847055       2.14901515      -0.00041900       0.00097200       0.00348600 
30
Lattice="-6.09819626445052 -2.031031840678816 -0.0011389192270063 2.034864362423395 -6.0994665087957864 -0.0003985935767264 2.0341048322316766 2.0337133186700975 12.214940109511721" Properties=Z:I:1:pos:R:3:vasp_force:R:3 uuid=f86fd878-f1ba-4102-874f-fbb5bec3bebc vasp_virial="-0.26107360109609007 0.2355273880684039 -0.09606926263285359 0.2355273880684039 0.05168791622091643 0.027449260964134352 -0.09606926263285359 0.027449260964134352 -0.01250214273481234" vasp_energy=-107.3588873 pbc="T T T"
      46       0.00233079      -4.06509841       4.13640660      -0.00398400       0.00087400       0.00507200 
      46      -4.06355984      -4.06382422       4.13580297      -0.00281800       0.00055700       0.00457400 
      46      -2.03125421      -2.03151818       4.13633826      -0.00270200       0.00112600       0.00553800 
      46       0.00105142       0.00078786       4.13687354      -0.00276500       0.00121100       0.00509700 
      46      -2.02997485      -6.09740445       4.13587132      -0.00148400       0.00094900       0.00439800 
      46       2.03465174      -4.06612654       6.04123905      -0.00706400      -0.00057200      -0.01274700 
      46      -2.03123889      -4.06485234       6.04063542       0.00339000      -0.00418100      -0.00074000 
      46       0.00106675      -2.03254631       6.04117070       0.00258100      -0.00144600      -0.00443100 
      46      -4.06482389      -2.03127211       6.04056707       0.00395200      -0.00376500      -0.00674400 
      46       0.00234611      -6.09843258       6.04070376      -0.00507600      -0.00080900       0.00478000 
      47      -2.03987997      -6.10058797       8.02785563       0.05873800       0.01869800      -0.00298600 
      47       0.00191329      -4.06512204       8.02839269      -0.01045000      -0.01178100      -0.00354500 
      47       2.03421893      -2.03281600       8.02892797      -0.00352600       0.00471900      -0.00312600 
      47      -2.03167171      -2.03154180       8.02832434      -0.00371200       0.00466900      -0.00370800 
      47       0.00063393       0.00076424       8.02885963      -0.01026600      -0.01271100      -0.00284300 
      47       2.03551300      -4.06527200      10.13836479      -0.00596800      -0.00024900       0.00035700 
      47      -2.03037763      -4.06399780      10.13776116       0.00083700      -0.00207200      -0.00825300 
      47       0.00192800      -2.03169176      10.13829645      -0.00034600      -0.00074900      -0.00606300 
      47       2.03423363       0.00061427      10.13883173       0.00143500      -0.00256600      -0.00336800 
      47      -2.03165700       0.00188847      10.13822810      -0.00544300      -0.00047400      -0.01198800 
      47       0.00147645      -4.06592723       0.04016230      -0.00029500       0.00060100       0.00433200 
      47      -4.06441418      -4.06465303       0.03955866      -0.00041600       0.00069600       0.00386400 
      47      -2.03210855      -2.03234700       0.04009395      -0.00012700       0.00012600       0.00472600 
      47       0.00019709      -0.00004096       0.04062924       0.00028300       0.00015700       0.00457400 
      47      -2.03082918      -6.09823327       0.03962701       0.00013000       0.00037200       0.00447500 
      47      -4.06307141      -6.09719635       2.14841152      -0.00113000       0.00141800       0.00376800 
      47      -2.03076577      -4.06489031       2.14894681      -0.00132600       0.00143800       0.00328500 
      47       0.00153986      -2.03258428       2.14948209      -0.00078600       0.00137500       0.00407800 
      47      -4.06435077      -2.03131008       2.14887846      -0.00109300       0.00144600       0.00365600 
      47       0.00281922      -6.09847055       2.14901515      -0.00056500       0.00094400       0.00397000 
30
Lattice="-6.09819626445052 -2.031031840678816 -0.0011389192270063 2.034864362423395 -6.0994665087957864 -0.0003985935767264 2.0341048322316766 2.0337133186700975 12.214940109511721" Properties=Z:I:1:pos:R:3:vasp_force:R:3 uuid=f4e7b332-acc1-4b8f-94c8-a772338e61ea vasp_virial="-0.26110825925387304 0.23588972335431707 -0.12037408346358504 0.23588972335431707 0.05188641294276452 0.019065137522265494 -0.12037408346358504 0.019065137522265494 -0.012281590821647807" vasp_energy=-107.35889728 pbc="T T T"
      46       0.00233079      -4.06509841       4.13640660      -0.00324100       0.00091700       0.00551100 
      46      -4.06355984      -4.06382422       4.13580297      -0.00302900       0.00078700       0.00483600 
      46      -2.03125421      -2.03151818       4.13633826      -0.00286100       0.00136200       0.00529700 
      46       0.00105142       0.00078786       4.13687354      -0.00201700       0.00109300       0.00466200 
      46      -2.02997485      -6.09740445       4.13587132      -0.00232700       0.00061600       0.00445500 
      46       2.03465174      -4.06612654       6.04123905       0.01085400      -0.00108300       0.00571500 
      46      -2.03123889      -4.06485234       6.04063542       0.00152200       0.00176100      -0.00683600 
      46       0.00106675      -2.03254631       6.04117070       0.00315000      -0.00134700      -0.00442600 
      46      -4.06482389      -2.03127211       6.04056707       0.00210900       0.00212200      -0.00063900 
      46       0.00234611      -6.09843258       6.04070376       0.01279600      -0.00132000      -0.01371000 
      47      -2.02090471      -6.09426818       8.02785917      -0.05695400      -0.02014900      -0.00335700 
      47       0.00191329      -4.06512204       8.02839269       0.01177300       0.01065400      -0.00361000 
      47       2.03421893      -2.03281600       8.02892797       0.00526600      -0.00724700      -0.00313700 
      47      -2.03167171      -2.03154180       8.02832434       0.00507800      -0.00728900      -0.00366100 
      47       0.00063393       0.00076424       8.02885963       0.01194600       0.00975500      -0.00269300 
      47       2.03551300      -4.06527200      10.13836479       0.00571600      -0.00074700      -0.01254500 
      47      -2.03037763      -4.06399780      10.13776116      -0.00112600       0.00154800      -0.00382700 
      47       0.00192800      -2.03169176      10.13829645       0.00075400      -0.00020000      -0.00602800 
      47       2.03423363       0.00061427      10.13883173      -0.00054600       0.00104300      -0.00773400 
      47      -2.03165700       0.00188847      10.13822810       0.00622100      -0.00093400       0.00080200 
      47       0.00147645      -4.06592723       0.04016230      -0.00019700       0.00059000       0.00419700 
      47      -4.06441418      -4.06465303       0.03955866      -0.00036100       0.00065500       0.00403700 
      47      -2.03210855      -2.03234700       0.04009395      -0.00012900       0.00021600       0.00424100 
      47       0.00019709      -0.00004096       0.04062924       0.00008100       0.00006500       0.00458600 
      47      -2.03082918      -6.09823327       0.03962701       0.00011000       0.00041000       0.00500900 
      47      -4.06307141      -6.09719635       2.14841152      -0.00107500       0.00149100       0.00370400 
      47      -2.03076577      -4.06489031       2.14894681      -0.00116700       0.00141300       0.00340300 
      47       0.00153986      -2.03258428       2.14948209      -0.00079500       0.00137000       0.00418000 
      47      -4.06435077      -2.03131008       2.14887846      -0.00095200       0.00148600       0.00349600 
      47       0.00281922      -6.09847055       2.14901515      -0.00059900       0.00096200       0.00406900 
30
Lattice="-6.09819626445052 -2.031031840678816 -0.0011389192270063 2.034864362423395 -6.0994665087957864 -0.0003985935767264 2.0341048322316766 2.0337133186700975 12.214940109511721" Properties=Z:I:1:pos:R:3:vasp_force:R:3 uuid=6032a1cd-b164-4354-ba1a-ef040fba52ec vasp_virial="-0.2615493630802021 0.2347743608220279 -0.11246887274744487 0.2347743608220279 0.051461062824518636 0.035792424764986945 -0.11246887274744487 0.035792424764986945 -0.012873930245575408" vasp_energy=-107.3589074 pbc="T T T"
      46       0.00233079      -4.06509841       4.13640660      -0.00352100       0.00098100       0.00538800 
      46      -4.06355984      -4.06382422       4.13580297      -0.00291600       0.00038000       0.00448100 
      46      -2.03125421      -2.03151818       4.13633826      -0.00275600       0.00090300       0.00563200 
      46       0.00105142       0.00078786       4.13687354      -0.00235200       0.00125400       0.00477600 
      46      -2.02997485      -6.09740445       4.13587132      -0.00205500       0.00118600       0.00442600 
      46       2.03465174      -4.06612654       6.04123905       0.00495100       0.00007500      -0.00028200 
      46      -2.03123889      -4.06485234       6.04063542       0.00225700      -0.01005800       0.00531000 
      46       0.00106675      -2.03254631       6.04117070       0.00286100      -0.00165900      -0.00439500 
      46      -4.06482389      -2.03127211       6.04056707       0.00274500      -0.00989000      -0.01305700 
      46       0.00234611      -6.09843258       6.04070376       0.00670300      -0.00010100      -0.00745200 
      47      -2.02722767      -6.10691411       8.02785678      -0.01800300       0.05664800      -0.00310200 
      47       0.00191329      -4.06512204       8.02839269      -0.00554100      -0.00520800      -0.00356800 
      47       2.03421893      -2.03281600       8.02892797       0.01176000      -0.01214800      -0.00308500 
      47      -2.03167171      -2.03154180       8.02832434       0.01202900      -0.01248300      -0.00376700 
      47       0.00063393       0.00076424       8.02885963      -0.00505500      -0.00566100      -0.00277800 
      47       2.03551300      -4.06527200      10.13836479       0.00175600       0.00049000      -0.00842300 
      47      -2.03037763      -4.06399780      10.13776116      -0.00036000      -0.00601100      -0.01236900 
      47       0.00192800      -2.03169176      10.13829645       0.00048100      -0.00102900      -0.00604000 
      47       2.03423363       0.00061427      10.13883173       0.00018000      -0.00667000       0.00101200 
      47      -2.03165700       0.00188847      10.13822810       0.00209000       0.00033400      -0.00349600 
      47       0.00147645      -4.06592723       0.04016230      -0.00021900       0.00058500       0.00400500 
      47      -4.06441418      -4.06465303       0.03955866      -0.00037600       0.00069800       0.00418100 
      47      -2.03210855      -2.03234700       0.04009395      -0.00017300       0.00014700       0.00456000 
      47       0.00019709      -0.00004096       0.04062924       0.00014600       0.00024900       0.00458200 
      47      -2.03082918      -6.09823327       0.03962701       0.00010600       0.00037700       0.00466600 
      47      -4.06307141      -6.09719635       2.14841152      -0.00110900       0.00138600       0.00369400 
      47      -2.03076577      -4.06489031       2.14894681      -0.00121000       0.00142400       0.00334500 
      47       0.00153986      -2.03258428       2.14948209      -0.00079700       0.00138400       0.00411700 
      47      -4.06435077      -2.03131008       2.14887846      -0.00102800       0.00148200       0.00354600 
      47       0.00281922      -6.09847055       2.14901515      -0.00059300       0.00093100       0.00409500 
30
Lattice="-6.09819626445052 -2.031031840678816 -0.0011389192270063 2.034864362423395 -6.0994665087957864 -0.0003985935767264 2.0341048322316766 2.0337133186700975 12.214940109511721" Properties=Z:I:1:pos:R:3:vasp_force:R:3 uuid=fb190924-42cd-431c-adc1-5b19831e7b21 vasp_virial="-0.2609286669817248 0.2350295708929754 -0.10420762822862481 0.2350295708929754 0.05161544916373381 0.010602245539980725 -0.10420762822862481 0.010602245539980725 -0.012495841251579067" vasp_energy=-107.35888546 pbc="T T T"
      46       0.00233079      -4.06509841       4.13640660      -0.00369100       0.00080900       0.00518300 
      46      -4.06355984      -4.06382422       4.13580297      -0.00292500       0.00096300       0.00490800 
      46      -2.03125421      -2.03151818       4.13633826      -0.00279700       0.00158900       0.00518400 
      46       0.00105142       0.00078786       4.13687354      -0.00242600       0.00105400       0.00497300 
      46      -2.02997485      -6.09740445       4.13587132      -0.00174800       0.00037900       0.00441200 
      46       2.03465174      -4.06612654       6.04123905      -0.00089400      -0.00178500      -0.00642600 
      46      -2.03123889      -4.06485234       6.04063542       0.00271800       0.00789900      -0.01324500 
      46       0.00106675      -2.03254631       6.04117070       0.00287800      -0.00113300      -0.00447800 
      46      -4.06482389      -2.03127211       6.04056707       0.00326900       0.00798800       0.00531700 
      46       0.00234611      -6.09843258       6.04070376       0.00076500      -0.00197100      -0.00115300 
      47      -2.03355701      -6.08794204       8.02785802       0.01954900      -0.05814100      -0.00278300 
      47       0.00191329      -4.06512204       8.02839269       0.00658000       0.00362600      -0.00360300 
      47       2.03421893      -2.03281600       8.02892797      -0.01046500       0.00991100      -0.00319500 
      47      -2.03167171      -2.03154180       8.02832434      -0.01020300       0.00957400      -0.00361800 
      47       0.00063393       0.00076424       8.02885963       0.00703500       0.00316300      -0.00277300 
      47       2.03551300      -4.06527200      10.13836479      -0.00184500      -0.00153400      -0.00400100 
      47      -2.03037763      -4.06399780      10.13776116       0.00012900       0.00564200       0.00049400 
      47       0.00192800      -2.03169176      10.13829645      -0.00006500       0.00008200      -0.00606600 
      47       2.03423363       0.00061427      10.13883173       0.00066800       0.00499400      -0.01190800 
      47      -2.03165700       0.00188847      10.13822810      -0.00145800      -0.00169100      -0.00792500 
      47       0.00147645      -4.06592723       0.04016230      -0.00026500       0.00060800       0.00450700 