  30
   1   1
     7.155696591811210     0.177569890694894    -0.040132771347927
     0.183904773345764     7.731642249028048    -0.053899869998615
    -0.022428377305746    -0.005016903548943     7.509774873151620
   1   2
    -0.009213494292423    -0.019314103275238    -0.022812438083967
    -0.002007935431375    -0.044979805571379    -0.021829193349788
    -0.002208412066331    -0.013844407942175    -0.087888986529238
   1   3
     0.033881369691548    -0.015847814505703     0.039474135010804
    -0.021620179786653     0.011784134691806     0.009071253986323
     0.023446349444209     0.015876546092355     0.006031781025284
   1   4
     0.034038142579164    -0.021484987274394     0.023683561743775
    -0.016188647833414     0.011849688593718     0.017575558951251
     0.038727759714966     0.007270732566734     0.006298669380586
   1   5
    -0.008385446482236    -0.002047858682658    -0.001606624445736
    -0.019190236657215    -0.045040634996063    -0.012213512125555
    -0.023799406357010    -0.023310182693442    -0.087792449192110
   1   6
     0.052531589336297    -0.037521038937029    -0.053681062193888
    -0.069143935806359    -0.957330653882234    -1.070151558407694
    -0.043353710938980    -1.153849875584837    -1.027260234773020
   1   7
    -0.763944141709493    -0.980270264323015    -0.017483073363792
    -0.788806760689126    -0.809752051641185     0.007403227097479
    -0.008717679934982    -0.002102101140703     0.053092972807443
   1   8
    -0.054204690240016     0.045526595675068     0.028351148614483
     0.002962054310449    -0.018957297829843    -0.010616128402196
     0.065196004713467    -0.028907093578854    -0.054359530139198
   1   9
    -0.019822563287224     0.043724646410627    -0.007550421820500
     0.016414947397207    -0.000134275440791     0.032343574687314
    -0.029918271452454     0.046818504397903    -0.022225849785340
   1  10
     0.065851325042536    -0.032325809674907     0.045869335245148
    -0.064777860714862    -0.945224570787078     1.063980583984773
     0.011895810941484     1.149691752962410    -0.993877482856556
   1  11
    -0.022196755786744     0.016393746890035    -0.036389797734726
    -0.003824653816550    -0.128788669920937     0.030167517816612
    -0.000463704527548     0.020906276634093    -0.011482279325996
   1  12
    -0.988140169816718    -0.024558548128104    -1.117542971849521
    -0.001833640172083     0.164873813662745    -0.000072617003491
    -0.983026377528071    -0.031896165580384    -0.906824403826162
   1  13
    -0.944008085197594    -0.045223858453055     1.101883171364063
     0.014424513009260     0.127503099923191     0.045023950988854
     0.968965366124350     0.050776608169363    -0.905567939788332
   1  14
    -0.074722308733930     0.002778132330477    -0.008450121852901
     0.014909346919085     0.023495505474866    -0.008830928590780
    -0.018426763811183     0.013222671490313     0.014858111209348
   1  15
     0.077667857494351     0.003474626624636     0.061731164017772
     0.017694935633644     0.035632769131369    -0.060113960234814
     0.029464870395770    -0.053340177874890     0.105279744061569
   1  16
    -1.124644332011760     1.231943771779144    -0.000257926169233
     1.310097403910476    -1.120058859565402     0.011597062505012
    -0.000746060651598     0.018397116712882     0.130104010812035
   1  17
    -0.069665407788773    -0.009397260993735     0.051020448127389
    -0.045936748527847     0.004611270755407    -0.003190575719067
     0.017293246228961    -0.068667275530653    -0.029738014896904
   1  18
    -0.038359848196534    -0.061272282474785     0.024488307454670
    -0.024826910822470     0.023272673337254    -0.016453962135911
     0.020930553093954     0.001261881363776    -0.010101329506843
   1  19
    -0.849416282839452     0.962929501774154    -0.009386419466934
     0.784831091977569    -0.819718635032045    -0.005551253041657
    -0.000682286099244     0.014527983298808     0.031415650242958
   1  20
    -0.017470207445724     0.055668487470887    -0.061606540059004
     0.020618517845883     0.012791809048285     0.017757254232035
    -0.036126284566179     0.030887657877670    -0.078188797423125
   1  21
     0.070526161920153     0.048781681173344     0.061444280853305
     0.048292784187919    -0.048896788525108    -0.041616034480616
     0.060854641345489    -0.043390816312322     0.095384189730353
   1  22
    -0.079803368156680     0.000371031051319    -0.015360114095912
     0.000653051985225     0.021985955958404     0.018760940493349
    -0.015944334388004     0.017112672283194     0.000533855497271
   1  23
    -0.777826519375266    -0.053907297613075     0.895516777803311
    -0.053676052610502     0.109153487395157    -0.022786946989234
     0.894283473182101    -0.024232059485925    -0.841228548899790
   1  24
    -0.816670994177334    -0.048064760680848    -0.904773033977129
    -0.048457938071067     0.087362569720021     0.017733584165559
    -0.905270024959010     0.016299364247222    -0.884954240429739
   1  25
    -0.023125855357548     0.055472282113851    -0.038033682538822
     0.054681502965753    -0.130737919429321     0.046392596735768
    -0.038225025117073     0.044454137626853     0.005517326769245
   1  26
     0.163947764641050     0.001718036831158    -0.006206840292481
    -0.005092065184991    -1.093549863273766     1.258375487422402
     0.002961158308222     1.282058263046185    -1.064892778563352
   1  27
    -0.013904765961011     0.009073824968320    -0.014400579292851
     0.021470112113063    -0.001595144889576     0.025182272889240
    -0.003412982621446     0.011325664197557    -0.003354689904803
   1  28
    -0.027435257292990    -0.008529261348092     0.046255265683519
    -0.001753174535122    -0.009523587570459    -0.014670861811408
     0.028097730594471     0.002682326861779    -0.031525079640326
   1  29
    -1.086017160622200    -1.275013428401843    -0.004831137393813
    -1.308743405414149    -1.090902941939836     0.005454011264917
    -0.005856043738401    -0.003397237347960     0.178821890394970
   1  30
     0.154836535006314    -0.020647509721925    -0.019211333025424
    -0.015076110328593    -1.100765298168588    -1.264821294660030
    -0.023511543455506    -1.291618529537125    -1.095848299676563
   2   1
    -0.008385446482236    -0.002047858682658    -0.001606624445736
    -0.019190236657215    -0.045040634996063    -0.012213512125555
    -0.023799406357010    -0.023310182693442    -0.087792449192110
   2   2
     7.155696591811210     0.177569890694895    -0.040132771347928
     0.183904773345765     7.731642249028048    -0.053899869998616
    -0.022428377305747    -0.005016903548944     7.509774873151618
   2   3
    -0.009213494292423    -0.019314103275238    -0.022812438083967
    -0.002007935431375    -0.044979805571379    -0.021829193349788
    -0.002208412066331    -0.013844407942175    -0.087888986529238
   2   4
     0.033881369691548    -0.015847814505703     0.039474135010804
    -0.021620179786653     0.011784134691806     0.009071253986323
     0.023446349444209     0.015876546092355     0.006031781025284
   2   5
     0.034038142579164    -0.021484987274394     0.023683561743775
    -0.016188647833414     0.011849688593718     0.017575558951251
     0.038727759714966     0.007270732566734     0.006298669380586
   2   6
     0.065851325042536    -0.032325809674908     0.045869335245148
    -0.064777860714862    -0.945224570787078     1.063980583984773
     0.011895810941484     1.149691752962410    -0.993877482856556
   2   7
     0.052531589336297    -0.037521038937029    -0.053681062193888
    -0.069143935806359    -0.957330653882234    -1.070151558407693
    -0.043353710938981    -1.153849875584836    -1.027260234773020
   2   8
    -0.763944141709494    -0.980270264323015    -0.017483073363792
    -0.788806760689126    -0.809752051641185     0.007403227097479
    -0.008717679934981    -0.002102101140703     0.053092972807443
   2   9
    -0.054204690240016     0.045526595675068     0.028351148614483
     0.002962054310449    -0.018957297829843    -0.010616128402196
     0.065196004713467    -0.028907093578854    -0.054359530139198
   2  10
    -0.019822563287224     0.043724646410627    -0.007550421820500
     0.016414947397207    -0.000134275440791     0.032343574687314
    -0.029918271452454     0.046818504397903    -0.022225849785340
   2  11
     0.077667857494351     0.003474626624636     0.061731164017772
     0.017694935633644     0.035632769131369    -0.060113960234814
     0.029464870395770    -0.053340177874890     0.105279744061569
   2  12
    -0.022196755786744     0.016393746890035    -0.036389797734726
    -0.003824653816550    -0.128788669920937     0.030167517816612
    -0.000463704527548     0.020906276634093    -0.011482279325996
   2  13
    -0.988140169816718    -0.024558548128104    -1.117542971849521
    -0.001833640172083     0.164873813662745    -0.000072617003491
    -0.983026377528070    -0.031896165580384    -0.906824403826162
   2  14
    -0.944008085197594    -0.045223858453055     1.101883171364062
     0.014424513009260     0.127503099923191     0.045023950988854
     0.968965366124350     0.050776608169363    -0.905567939788332
   2  15
    -0.074722308733930     0.002778132330477    -0.008450121852901
     0.014909346919085     0.023495505474866    -0.008830928590780
    -0.018426763811183     0.013222671490313     0.014858111209348
   2  16
    -0.017470207445724     0.055668487470887    -0.061606540059004
     0.020618517845883     0.012791809048285     0.017757254232035
    -0.036126284566179     0.030887657877670    -0.078188797423125
   2  17
    -1.124644332011760     1.231943771779144    -0.000257926169233
     1.310097403910476    -1.120058859565402     0.011597062505012
    -0.000746060651598     0.018397116712882     0.130104010812035
   2  18
    -0.069665407788773    -0.009397260993735     0.051020448127389
    -0.045936748527847     0.004611270755407    -0.003190575719067
     0.017293246228961    -0.068667275530653    -0.029738014896904
   2  19
    -0.038359848196534    -0.061272282474785     0.024488307454670
    -0.024826910822470     0.023272673337254    -0.016453962135911
     0.020930553093954     0.001261881363776    -0.010101329506843
   2  20
    -0.849416282839452     0.962929501774154    -0.009386419466935
     0.784831091977569    -0.819718635032045    -0.005551253041657
    -0.000682286099244     0.014527983298808     0.031415650242958
   2  21
    -0.023125855357548     0.055472282113851    -0.038033682538822
     0.054681502965753    -0.130737919429321     0.046392596735768
    -0.038225025117073     0.044454137626853     0.005517326769245
   2  22
     0.070526161920153     0.048781681173344     0.061444280853305
     0.048292784187919    -0.048896788525108    -0.041616034480616
     0.060854641345489    -0.043390816312322     0.095384189730353
   2  23
    -0.079803368156680     0.000371031051319    -0.015360114095912
     0.000653051985225     0.021985955958404     0.018760940493349
    -0.015944334388004     0.017112672283194     0.000533855497271
   2  24
    -0.777826519375266    -0.053907297613075     0.895516777803311
    -0.053676052610502     0.109153487395157    -0.022786946989234
     0.894283473182101    -0.024232059485925    -0.841228548899790
   2  25
    -0.816670994177334    -0.048064760680848    -0.904773033977128
    -0.048457938071067     0.087362569720021     0.017733584165559
    -0.905270024959010     0.016299364247222    -0.884954240429738
   2  26
     0.154836535006314    -0.020647509721925    -0.019211333025424
    -0.015076110328593    -1.100765298168588    -1.264821294660030
    -0.023511543455506    -1.291618529537124    -1.095848299676562
   2  27
     0.163947764641050     0.001718036831158    -0.006206840292481
    -0.005092065184991    -1.093549863273766     1.258375487422402
     0.002961158308222     1.282058263046185    -1.064892778563352
   2  28
    -0.013904765961011     0.009073824968320    -0.014400579292851
     0.021470112113063    -0.001595144889576     0.025182272889240
    -0.003412982621446     0.011325664197557    -0.003354689904803
   2  29
    -0.027435257292990    -0.008529261348092     0.046255265683519
    -0.001753174535122    -0.009523587570459    -0.014670861811408
     0.028097730594471     0.002682326861779    -0.031525079640326
   2  30
    -1.086017160622200    -1.275013428401843    -0.004831137393813
    -1.308743405414149    -1.090902941939836     0.005454011264917
    -0.005856043738401    -0.003397237347960     0.178821890394970
   3   1
     0.034038142579164    -0.021484987274394     0.023683561743775
    -0.016188647833414     0.011849688593718     0.017575558951251
     0.038727759714966     0.007270732566734     0.006298669380586
   3   2
    -0.008385446482236    -0.002047858682658    -0.001606624445736
    -0.019190236657215    -0.045040634996063    -0.012213512125555
    -0.023799406357010    -0.023310182693442    -0.087792449192110
   3   3
     7.155696591811210     0.177569890694895    -0.040132771347928
     0.183904773345765     7.731642249028048    -0.053899869998616
    -0.022428377305747    -0.005016903548944     7.509774873151618
   3   4
    -0.009213494292423    -0.019314103275238    -0.022812438083967
    -0.002007935431375    -0.044979805571379    -0.021829193349788
    -0.002208412066331    -0.013844407942175    -0.087888986529238
   3   5
     0.033881369691548    -0.015847814505703     0.039474135010804
    -0.021620179786653     0.011784134691806     0.009071253986323
     0.023446349444209     0.015876546092355     0.006031781025284
   3   6
    -0.019822563287224     0.043724646410627    -0.007550421820500
     0.016414947397207    -0.000134275440791     0.032343574687314
    -0.029918271452454     0.046818504397903    -0.022225849785340
   3   7
     0.065851325042536    -0.032325809674908     0.045869335245148
    -0.064777860714862    -0.945224570787078     1.063980583984773
     0.011895810941484     1.149691752962410    -0.993877482856556
   3   8
     0.052531589336297    -0.037521038937029    -0.053681062193888
    -0.069143935806359    -0.957330653882234    -1.070151558407693
    -0.043353710938981    -1.153849875584836    -1.027260234773020
   3   9
    -0.763944141709494    -0.980270264323015    -0.017483073363792
    -0.788806760689126    -0.809752051641185     0.007403227097479
    -0.008717679934981    -0.002102101140703     0.053092972807443
   3  10
    -0.054204690240016     0.045526595675068     0.028351148614483
     0.002962054310449    -0.018957297829843    -0.010616128402196
     0.065196004713467    -0.028907093578854    -0.054359530139198
   3  11
    -0.074722308733930     0.002778132330477    -0.008450121852901
     0.014909346919085     0.023495505474866    -0.008830928590780
    -0.018426763811183     0.013222671490313     0.014858111209348
   3  12
     0.077667857494351     0.003474626624636     0.061731164017772
     0.017694935633644     0.035632769131369    -0.060113960234814
     0.029464870395770    -0.053340177874890     0.105279744061569
   3  13
    -0.022196755786744     0.016393746890035    -0.036389797734726
    -0.003824653816550    -0.128788669920937     0.030167517816612
    -0.000463704527548     0.020906276634093    -0.011482279325996
   3  14
    -0.988140169816718    -0.024558548128104    -1.117542971849521
    -0.001833640172083     0.164873813662745    -0.000072617003491
    -0.983026377528070    -0.031896165580384    -0.906824403826162
   3  15
    -0.944008085197594    -0.045223858453055     1.101883171364062
     0.014424513009260     0.127503099923191     0.045023950988854
     0.968965366124350     0.050776608169363    -0.905567939788332
   3  16
    -0.849416282839452     0.962929501774154    -0.009386419466935
     0.784831091977569    -0.819718635032045    -0.005551253041657
    -0.000682286099244     0.014527983298808     0.031415650242958
   3  17
    -0.017470207445724     0.055668487470887    -0.061606540059004
     0.020618517845883     0.012791809048285     0.017757254232035
    -0.036126284566179     0.030887657877670    -0.078188797423125
   3  18
    -1.124644332011760     1.231943771779144    -0.000257926169233
     1.310097403910476    -1.120058859565402     0.011597062505012
    -0.000746060651598     0.018397116712882     0.130104010812035
   3  19
    -0.069665407788773    -0.009397260993735     0.051020448127389
    -0.045936748527847     0.004611270755407    -0.003190575719067
     0.017293246228961    -0.068667275530653    -0.029738014896904
   3  20
    -0.038359848196534    -0.061272282474785     0.024488307454670
    -0.024826910822470     0.023272673337254    -0.016453962135911
     0.020930553093954     0.001261881363776    -0.010101329506843
   3  21
    -0.816670994177334    -0.048064760680848    -0.904773033977128
    -0.048457938071067     0.087362569720021     0.017733584165559
    -0.905270024959010     0.016299364247222    -0.884954240429738
   3  22
    -0.023125855357548     0.055472282113851    -0.038033682538822
     0.054681502965753    -0.130737919429321     0.046392596735768
    -0.038225025117073     0.044454137626853     0.005517326769245
   3  23
     0.070526161920153     0.048781681173344     0.061444280853305
     0.048292784187919    -0.048896788525108    -0.041616034480616
     0.060854641345489    -0.043390816312322     0.095384189730353
   3  24
    -0.079803368156680     0.000371031051319    -0.015360114095912
     0.000653051985225     0.021985955958404     0.018760940493349
    -0.015944334388004     0.017112672283194     0.000533855497271
   3  25
    -0.777826519375266    -0.053907297613075     0.895516777803311
    -0.053676052610502     0.109153487395157    -0.022786946989234
     0.894283473182101    -0.024232059485925    -0.841228548899790
   3  26
    -1.086017160622200    -1.275013428401843    -0.004831137393813
    -1.308743405414149    -1.090902941939836     0.005454011264917
    -0.005856043738401    -0.003397237347960     0.178821890394970
   3  27
     0.154836535006314    -0.020647509721925    -0.019211333025424
    -0.015076110328593    -1.100765298168588    -1.264821294660030
    -0.023511543455506    -1.291618529537124    -1.095848299676562
   3  28
     0.163947764641050     0.001718036831158    -0.006206840292481
    -0.005092065184991    -1.093549863273766     1.258375487422402
     0.002961158308222     1.282058263046185    -1.064892778563352
   3  29
    -0.013904765961011     0.009073824968320    -0.014400579292851
     0.021470112113063    -0.001595144889576     0.025182272889240
    -0.003412982621446     0.011325664197557    -0.003354689904803
   3  30
    -0.027435257292990    -0.008529261348092     0.046255265683519
    -0.001753174535122    -0.009523587570459    -0.014670861811408
     0.028097730594471     0.002682326861779    -0.031525079640326
   4   1
     0.033881369691548    -0.015847814505703     0.039474135010804
    -0.021620179786653     0.011784134691806     0.009071253986323
     0.023446349444209     0.015876546092355     0.006031781025284
   4   2
     0.034038142579164    -0.021484987274394     0.023683561743775
    -0.016188647833414     0.011849688593718     0.017575558951251
     0.038727759714966     0.007270732566734     0.006298669380586
   4   3
    -0.008385446482236    -0.002047858682658    -0.001606624445736
    -0.019190236657215    -0.045040634996063    -0.012213512125555
    -0.023799406357010    -0.023310182693442    -0.087792449192110
   4   4
     7.155696591811210     0.177569890694895    -0.040132771347928
     0.183904773345765     7.731642249028048    -0.053899869998616
    -0.022428377305747    -0.005016903548944     7.509774873151618
   4   5
    -0.009213494292423    -0.019314103275238    -0.022812438083967
    -0.002007935431375    -0.044979805571379    -0.021829193349788
    -0.002208412066331    -0.013844407942175    -0.087888986529238
   4   6
    -0.054204690240016     0.045526595675068     0.028351148614483
     0.002962054310449    -0.018957297829843    -0.010616128402196
     0.065196004713467    -0.028907093578854    -0.054359530139198
   4   7
    -0.019822563287224     0.043724646410627    -0.007550421820500
     0.016414947397207    -0.000134275440791     0.032343574687314
    -0.029918271452454     0.046818504397903    -0.022225849785340
   4   8
     0.065851325042536    -0.032325809674908     0.045869335245148
    -0.064777860714862    -0.945224570787078     1.063980583984773
     0.011895810941484     1.149691752962410    -0.993877482856556
   4   9
     0.052531589336297    -0.037521038937029    -0.053681062193888
    -0.069143935806359    -0.957330653882234    -1.070151558407693
    -0.043353710938981    -1.153849875584836    -1.027260234773020
   4  10
    -0.763944141709494    -0.980270264323015    -0.017483073363792
    -0.788806760689126    -0.809752051641185     0.007403227097479
    -0.008717679934981    -0.002102101140703     0.053092972807443
   4  11
    -0.944008085197594    -0.045223858453055     1.101883171364062
     0.014424513009260     0.127503099923191     0.045023950988854
     0.968965366124350     0.050776608169363    -0.905567939788332
   4  12
    -0.074722308733930     0.002778132330477    -0.008450121852901
     0.014909346919085     0.023495505474866    -0.008830928590780
    -0.018426763811183     0.013222671490313     0.014858111209348
   4  13
     0.077667857494351     0.003474626624636     0.061731164017772
     0.017694935633644     0.035632769131369    -0.060113960234814
     0.029464870395770    -0.053340177874890     0.105279744061569
   4  14
    -0.022196755786744     0.016393746890035    -0.036389797734726
    -0.003824653816550    -0.128788669920937     0.030167517816612
    -0.000463704527548     0.020906276634093    -0.011482279325996
   4  15
    -0.988140169816718    -0.024558548128104    -1.117542971849521
    -0.001833640172083     0.164873813662745    -0.000072617003491
    -0.983026377528070    -0.031896165580384    -0.906824403826162
   4  16
    -0.038359848196534    -0.061272282474785     0.024488307454670
    -0.024826910822470     0.023272673337254    -0.016453962135911
     0.020930553093954     0.001261881363776    -0.010101329506843
   4  17
    -0.849416282839452     0.962929501774154    -0.009386419466935
     0.784831091977569    -0.819718635032045    -0.005551253041657
    -0.000682286099244     0.014527983298808     0.031415650242958
   4  18
    -0.017470207445724     0.055668487470887    -0.061606540059004
     0.020618517845883     0.012791809048285     0.017757254232035
    -0.036126284566179     0.030887657877670    -0.078188797423125
   4  19
    -1.124644332011760     1.231943771779144    -0.000257926169233
     1.310097403910476    -1.120058859565402     0.011597062505012
    -0.000746060651598     0.018397116712882     0.130104010812035
   4  20
    -0.069665407788773    -0.009397260993735     0.051020448127389
    -0.045936748527847     0.004611270755407    -0.003190575719067
     0.017293246228961    -0.068667275530653    -0.029738014896904
   4  21
    -0.777826519375266    -0.053907297613075     0.895516777803311
    -0.053676052610502     0.109153487395157    -0.022786946989234
     0.894283473182101    -0.024232059485925    -0.841228548899790
   4  22
    -0.816670994177334    -0.048064760680848    -0.904773033977128
    -0.048457938071067     0.087362569720021     0.017733584165559
    -0.905270024959010     0.016299364247222    -0.884954240429738
   4  23
    -0.023125855357548     0.055472282113851    -0.038033682538822
     0.054681502965753    -0.130737919429321     0.046392596735768
    -0.038225025117073     0.044454137626853     0.005517326769245
   4  24
     0.070526161920153     0.048781681173344     0.061444280853305
     0.048292784187919    -0.048896788525108    -0.041616034480616
     0.060854641345489    -0.043390816312322     0.095384189730353
   4  25
    -0.079803368156680     0.000371031051319    -0.015360114095912
     0.000653051985225     0.021985955958404     0.018760940493349
    -0.015944334388004     0.017112672283194     0.000533855497271
   4  26
    -0.027435257292990    -0.008529261348092     0.046255265683519
    -0.001753174535122    -0.009523587570459    -0.014670861811408
     0.028097730594471     0.002682326861779    -0.031525079640326
   4  27
    -1.086017160622200    -1.275013428401843    -0.004831137393813
    -1.308743405414149    -1.090902941939836     0.005454011264917
    -0.005856043738401    -0.003397237347960     0.178821890394970
   4  28
     0.154836535006314    -0.020647509721925    -0.019211333025424
    -0.015076110328593    -1.100765298168588    -1.264821294660030
    -0.023511543455506    -1.291618529537124    -1.095848299676562
   4  29
     0.163947764641050     0.001718036831158    -0.006206840292481
    -0.005092065184991    -1.093549863273766     1.258375487422402
     0.002961158308222     1.282058263046185    -1.064892778563352
   4  30
    -0.013904765961011     0.009073824968320    -0.014400579292851
     0.021470112113063    -0.001595144889576     0.025182272889240
    -0.003412982621446     0.011325664197557    -0.003354689904803
   5   1
    -0.009213494292423    -0.019314103275238    -0.022812438083967
    -0.002007935431375    -0.044979805571379    -0.021829193349788
    -0.002208412066331    -0.013844407942175    -0.087888986529238
   5   2
     0.033881369691548    -0.015847814505703     0.039474135010804
    -0.021620179786653     0.011784134691806     0.009071253986323
     0.023446349444209     0.015876546092355     0.006031781025284
   5   3
     0.034038142579164    -0.021484987274394     0.023683561743775
    -0.016188647833414     0.011849688593718     0.017575558951251
     0.038727759714966     0.007270732566734     0.006298669380586
   5   4
    -0.008385446482236    -0.002047858682658    -0.001606624445736
    -0.019190236657215    -0.045040634996063    -0.012213512125555
    -0.023799406357010    -0.023310182693442    -0.087792449192110
   5   5
     7.155696591811210     0.177569890694895    -0.040132771347928
     0.183904773345765     7.731642249028048    -0.053899869998616
    -0.022428377305747    -0.005016903548944     7.509774873151618
   5   6
    -0.763944141709494    -0.980270264323015    -0.017483073363792
    -0.788806760689126    -0.809752051641185     0.007403227097479
    -0.008717679934981    -0.002102101140703     0.053092972807443
   5   7
    -0.054204690240016     0.045526595675068     0.028351148614483
     0.002962054310449    -0.018957297829843    -0.010616128402196
     0.065196004713467    -0.028907093578854    -0.054359530139198
   5   8
    -0.019822563287224     0.043724646410627    -0.007550421820500
     0.016414947397207    -0.000134275440791     0.032343574687314
    -0.029918271452454     0.046818504397903    -0.022225849785340
   5   9
     0.065851325042536    -0.032325809674908     0.045869335245148
    -0.064777860714862    -0.945224570787078     1.063980583984773
     0.011895810941484     1.149691752962410    -0.993877482856556
   5  10
     0.052531589336297    -0.037521038937029    -0.053681062193888
    -0.069143935806359    -0.957330653882234    -1.070151558407693
    -0.043353710938981    -1.153849875584836    -1.027260234773020
   5  11
    -0.988140169816718    -0.024558548128104    -1.117542971849521
    -0.001833640172083     0.164873813662745    -0.000072617003491
    -0.983026377528070    -0.031896165580384    -0.906824403826162
   5  12
    -0.944008085197594    -0.045223858453055     1.101883171364062
     0.014424513009260     0.127503099923191     0.045023950988854
     0.968965366124350     0.050776608169363    -0.905567939788332
   5  13
    -0.074722308733930     0.002778132330477    -0.008450121852901
     0.014909346919085     0.023495505474866    -0.008830928590780
    -0.018426763811183     0.013222671490313     0.014858111209348
   5  14
     0.077667857494351     0.003474626624636     0.061731164017772
     0.017694935633644     0.035632769131369    -0.060113960234814
     0.029464870395770    -0.053340177874890     0.105279744061569
   5  15
    -0.022196755786744     0.016393746890035    -0.036389797734726
    -0.003824653816550    -0.128788669920937     0.030167517816612
    -0.000463704527548     0.020906276634093    -0.011482279325996
   5  16
    -0.069665407788773    -0.009397260993735     0.051020448127389
    -0.045936748527847     0.004611270755407    -0.003190575719067
     0.017293246228961    -0.068667275530653    -0.029738014896904
   5  17
    -0.038359848196534    -0.061272282474785     0.024488307454670
    -0.024826910822470     0.023272673337254    -0.016453962135911
     0.020930553093954     0.001261881363776    -0.010101329506843
   5  18
    -0.849416282839452     0.962929501774154    -0.009386419466935
     0.784831091977569    -0.819718635032045    -0.005551253041657
    -0.000682286099244     0.014527983298808     0.031415650242958
   5  19
    -0.017470207445724     0.055668487470887    -0.061606540059004
     0.020618517845883     0.012791809048285     0.017757254232035
    -0.036126284566179     0.030887657877670    -0.078188797423125
   5  20
    -1.124644332011760     1.231943771779144    -0.000257926169233
     1.310097403910476    -1.120058859565402     0.011597062505012
    -0.000746060651598     0.018397116712882     0.130104010812035
   5  21
    -0.079803368156680     0.000371031051319    -0.015360114095912
     0.000653051985225     0.021985955958404     0.018760940493349
    -0.015944334388004     0.017112672283194     0.000533855497271
   5  22
    -0.777826519375266    -0.053907297613075     0.895516777803311
    -0.053676052610502     0.109153487395157    -0.022786946989234
     0.894283473182101    -0.024232059485925    -0.841228548899790
   5  23
    -0.816670994177334    -0.048064760680848    -0.904773033977128
    -0.048457938071067     0.087362569720021     0.017733584165559