30
Lattice="-2.0133795567264436 -3.9648905504846392 -5.923279528770283 -5.999051144235596 -0.0199321972709132 5.922989789108618 -1.97292456729113 7.9096895320627905 -1.9743925813530911" Properties=Z:I:1:pos:R:3:vasp_force:R:3 uuid=3fc86103-a1c1-4bb4-b538-3e214b17f24b vasp_virial="-0.03724524709000873 0.028820587569884978 0.04320893451689731 0.028820587569884978 -0.09607155147800726 -0.07415690224347904 0.04320893451689731 -0.07415690224347904 -0.14636492527875997" vasp_energy=-144.19439993 pbc="T T T"
      46      -0.00693508       0.01639364      -0.00828989       0.02141100       0.04042700       0.06418700 
      46      -3.99039438       3.96657761      -3.94917653       0.00148400      -0.00114300       0.00226700 
      46      -3.99026787       3.96660948      -0.00038824       0.00116400      -0.00111900       0.00484800 
      46      -6.00352092       0.00175080      -1.97487949       0.00136400      -0.00083000       0.00355900 
      46      -6.00339441       0.00178268       1.97390880       0.00158100      -0.00147700       0.00416200 
      46      -2.01737993      -1.97549108      -3.94891230       0.00196100      -0.01182200      -0.01431200 
      46      -3.99017799       5.93423033      -1.97451659      -0.00478400      -0.00470800      -0.00048600 
      46      -6.00343104       1.96937165      -3.94900784       0.00206200       0.00236400      -0.00192800 
      46      -6.00330453       1.96940353      -0.00021955       0.00071700       0.00264300      -0.00122100 
      46      -6.00317803       1.96943540       3.94856874       0.00180500       0.00654300      -0.00313500 
      46      -7.99896261      -0.02660789      -0.00025402      -0.00048500      -0.00047700       0.00007700 
      46      -1.99978496      -0.00664381      -1.97445553      -0.01052300      -0.00050200      -0.01018700 
      46      -4.01303801      -3.97150249      -3.94894677       0.00447200       0.00111800      -0.00391100 
      46      -5.98583607       3.93821892      -1.97455106      -0.00072800      -0.00036100      -0.00020300 
      46      -5.98570956       3.93825079       1.97423722       0.00059200      -0.00066000       0.00000100 
      46      -1.98225038       1.96221379       0.00004650       0.00240900      -0.00523000       0.00116900 
      46      -3.99550343      -2.00264488      -1.97444474      -0.00183000      -0.00273600       0.00063100 
      46      -5.96830149       5.90707652      -0.00004904      -0.00210300      -0.00226000      -0.00043900 
      46      -7.98155454       1.94221785      -1.97454028       0.00009100      -0.00425000       0.00171200 
      46      -7.98142803       1.94224972       1.97424800      -0.00295500      -0.00222000       0.00055500 
      46      -3.99541063      -0.03517435      -3.94868038      -0.00041200       0.00154000      -0.00329900 
      46      -3.99528412      -0.03514248       0.00010791      -0.00071700       0.00184300      -0.00292400 
      46      -5.96808218       7.87457893       1.97450361       0.00456400       0.00199600      -0.00805900 
      46      -7.98133523       3.90972025       0.00001237      -0.00990600       0.00228200      -0.01259400 
      46      -1.98215758       3.92968433      -1.97418913      -0.00108500       0.00151300      -0.00352300 
      47      -3.99297074       1.96569255      -5.92329179       0.00053800       0.00369800      -0.00169200 
      47      -3.99284423       1.96572442      -1.97450350      -0.00055400       0.00044800       0.00012800 
      47      -3.99271772       1.96575630       1.97428478      -0.00012900      -0.00049300      -0.00038500 
      47      -6.00597077      -1.99910238      -0.00020646      -0.00990500      -0.00959700       0.00089600 
      47      -7.97876883       5.91061903       1.97418925      -0.00010000      -0.01652900      -0.01589400 
30
Lattice="-2.0133795567264436 -3.9648905504846392 -5.923279528770283 -5.999051144235596 -0.0199321972709132 5.922989789108618 -1.97292456729113 7.9096895320627905 -1.9743925813530911" Properties=Z:I:1:pos:R:3:vasp_force:R:3 uuid=e3c996c1-46ba-4717-9e5e-c3a951609ca7 vasp_virial="-0.03405563997749227 0.03429266582713799 0.04345181285665774 0.03429266582713799 -0.09843010499423505 -0.07770936374310747 0.04345181285665774 -0.07770936374310747 -0.15485103594508814" vasp_energy=-144.19440422 pbc="T T T"
      46      -2.01759632      -3.94314380      -5.92357223       0.00068600      -0.00893100      -0.00287600 
      46      -3.99039438       3.96657761      -3.94917653       0.00138200       0.00709100      -0.00382700 
      46      -3.99026787       3.96660948      -0.00038824       0.00105900      -0.00118600       0.00474500 
      46      -6.00352092       0.00175080      -1.97487949       0.00158300      -0.00100000       0.00255200 
      46      -6.00339441       0.00178268       1.97390880       0.00725600       0.00468700       0.00543000 
      46      -2.01026392      -1.97546743      -3.95593809      -0.05340700       0.00213400       0.05703700 
      46      -3.99017799       5.93423033      -1.97451659       0.00139800       0.00220800      -0.00190800 
      46      -6.00343104       1.96937165      -3.94900784       0.00152700       0.00293600      -0.00187800 
      46      -6.00330453       1.96940353      -0.00021955       0.00093000       0.00229000      -0.00140300 
      46      -6.00317803       1.96943540       3.94856874       0.00191700       0.00237000      -0.00169600 
      46      -7.99896261      -0.02660789      -0.00025402      -0.00047700       0.00775900      -0.00747300 
      46      -1.99978496      -0.00664381      -1.97445553      -0.00093500      -0.00821400      -0.00649300 
      46      -4.01303801      -3.97150249      -3.94894677       0.00545600       0.00749800       0.00022900 
      46      -5.98583607       3.93821892      -1.97455106       0.00005400      -0.00038600      -0.00076800 
      46      -5.98570956       3.93825079       1.97423722       0.00021300      -0.00064000      -0.00020900 
      46      -1.98225038       1.96221379       0.00004650      -0.00318100      -0.00248900       0.00224100 
      46      -3.99550343      -2.00264488      -1.97444474       0.01410300      -0.00143200      -0.01471100 
      46      -5.96830149       5.90707652      -0.00004904      -0.00137100      -0.00225600       0.00024200 
      46      -7.98155454       1.94221785      -1.97454028      -0.00184600      -0.00287500       0.00172300 
      46      -7.98142803       1.94224972       1.97424800      -0.00298100      -0.00269800       0.00139400 
      46      -3.99541063      -0.03517435      -3.94868038       0.00652400      -0.00712000      -0.00307700 
      46      -3.99528412      -0.03514248       0.00010791       0.00044500       0.00187400      -0.00326800 
      46      -5.96808218       7.87457893       1.97450361       0.00018600       0.00176500      -0.00378800 
      46      -7.98133523       3.90972025       0.00001237       0.00561400      -0.00386700      -0.00303300 
      46      -1.98215758       3.92968433      -1.97418913      -0.00135000       0.00166000      -0.00395500 
      47      -3.99297074       1.96569255      -5.92329179      -0.00008000      -0.00069600       0.00036000 
      47      -3.99284423       1.96572442      -1.97450350      -0.00070400       0.00029400      -0.00003500 
      47      -3.99271772       1.96575630       1.97428478       0.00034200      -0.00034900       0.00000500 
      47      -6.00597077      -1.99910238      -0.00020646       0.01717600      -0.00040400      -0.01702100 
      47      -7.97876883       5.91061903       1.97418925      -0.00152000      -0.00002400       0.00146300 
30
Lattice="-2.0133795567264436 -3.9648905504846392 -5.923279528770283 -5.999051144235596 -0.0199321972709132 5.922989789108618 -1.97292456729113 7.9096895320627905 -1.9743925813530911" Properties=Z:I:1:pos:R:3:vasp_force:R:3 uuid=0d54017d-a202-4b72-b9a6-f0d4dcb0d61c vasp_virial="-0.01756917532435673 0.025607570496909676 0.044628163369714265 0.025607570496909676 -0.08565411907382509 -0.08194949283121421 0.044628163369714265 -0.08194949283121421 -0.15687892376983484" vasp_energy=-144.19445574 pbc="T T T"
      46      -2.01759632      -3.94314380      -5.92357223       0.00180500       0.00444900       0.01228000 
      46      -3.99039438       3.96657761      -3.94917653       0.00208300       0.01028600      -0.00970000 
      46      -3.99026787       3.96660948      -0.00038824       0.00050500      -0.00115500       0.00409000 
      46      -6.00352092       0.00175080      -1.97487949       0.00053900      -0.00073200       0.00367000 
      46      -6.00339441       0.00178268       1.97390880       0.00938800       0.00479900       0.00508600 
      46      -2.01973209      -1.96606099      -3.95126620       0.02037300      -0.06852900       0.01898400 
      46      -3.99017799       5.93423033      -1.97451659       0.00142000       0.00288200      -0.00121600 
      46      -6.00343104       1.96937165      -3.94900784       0.00168800       0.00253700      -0.00174100 
      46      -6.00330453       1.96940353      -0.00021955       0.00141800       0.00227100      -0.00134800 
      46      -6.00317803       1.96943540       3.94856874       0.00206800       0.00319100      -0.00098800 
      46      -7.99896261      -0.02660789      -0.00025402       0.00025900       0.01246900      -0.01314000 
      46      -1.99978496      -0.00664381      -1.97445553       0.00092200       0.00625100       0.00892800 
      46      -4.01303801      -3.97150249      -3.94894677       0.00670900       0.00614900       0.00005500 
      46      -5.98583607       3.93821892      -1.97455106      -0.00015300      -0.00049200      -0.00027000 
      46      -5.98570956       3.93825079       1.97423722      -0.00017500      -0.00047400      -0.00100500 
      46      -1.98225038       1.96221379       0.00004650      -0.00612000      -0.00371000      -0.00470000 
      46      -3.99550343      -2.00264488      -1.97444474      -0.00030800      -0.00294600       0.00092000 
      46      -5.96830149       5.90707652      -0.00004904      -0.00237200      -0.00219800      -0.00018800 
      46      -7.98155454       1.94221785      -1.97454028      -0.00172700      -0.00280100       0.00202600 
      46      -7.98142803       1.94224972       1.97424800      -0.00308900      -0.00098400       0.00088200 
      46      -3.99541063      -0.03517435      -3.94868038      -0.01591700       0.01592300      -0.00384300 
      46      -3.99528412      -0.03514248       0.00010791      -0.00035300       0.00142000      -0.00234400 
      46      -5.96808218       7.87457893       1.97450361       0.00030200       0.00141100      -0.00358100 
      46      -7.98133523       3.90972025       0.00001237      -0.01124200       0.01120300      -0.00336800 
      46      -1.98215758       3.92968433      -1.97418913      -0.00172900       0.00167600      -0.00425300 
      47      -3.99297074       1.96569255      -5.92329179       0.00003800       0.00033900      -0.00003700 
      47      -3.99284423       1.96572442      -1.97450350      -0.00071200       0.00054100       0.00013500 
      47      -3.99271772       1.96575630       1.97428478      -0.00036500      -0.00048900      -0.00018100 
      47      -6.00597077      -1.99910238      -0.00020646       0.00056500      -0.00189500       0.00001500 
      47      -7.97876883       5.91061903       1.97418925      -0.00582100      -0.00139200      -0.00516700 
30
Lattice="-2.0133795567264436 -3.9648905504846392 -5.923279528770283 -5.999051144235596 -0.0199321972709132 5.922989789108618 -1.97292456729113 7.9096895320627905 -1.9743925813530911" Properties=Z:I:1:pos:R:3:vasp_force:R:3 uuid=e3d530fd-8b38-4b3c-af07-aa24966b5561 vasp_virial="-0.03586991191305209 0.03916486384763331 0.044698393251090776 0.03916486384763331 -0.0952200141663171 -0.08686851077262722 0.044698393251090776 -0.08686851077262722 -0.1473744798235473" vasp_energy=-144.19439795 pbc="T T T"
      46      -2.01759632      -3.94314380      -5.92357223       0.00112800      -0.00821800      -0.00446000 
      46      -3.99039438       3.96657761      -3.94917653       0.00095900      -0.01221300       0.01658200 
      46      -3.99026787       3.96660948      -0.00038824       0.00146700      -0.00136500       0.00520400 
      46      -6.00352092       0.00175080      -1.97487949       0.00152600      -0.00103500       0.00305500 
      46      -6.00339441       0.00178268       1.97390880      -0.00540500      -0.00677900       0.00481800 
      46      -2.01502777      -1.98492116      -3.94655839      -0.01569300       0.07345000      -0.01994300 
      46      -3.99017799       5.93423033      -1.97451659       0.00189100       0.00189600      -0.00062900 
      46      -6.00343104       1.96937165      -3.94900784       0.00164500       0.00261000      -0.00125900 
      46      -6.00330453       1.96940353      -0.00021955       0.00042100       0.00206700      -0.00101800 
      46      -6.00317803       1.96943540       3.94856874       0.00165700       0.00181800      -0.00104100 
      46      -7.99896261      -0.02660789      -0.00025402      -0.00100900      -0.01198400       0.01283500 
      46      -1.99978496      -0.00664381      -1.97445553      -0.00039500      -0.00825300      -0.00807700 
      46      -4.01303801      -3.97150249      -3.94894677      -0.00840900      -0.00595000       0.00008900 
      46      -5.98583607       3.93821892      -1.97455106      -0.00077000      -0.00069900      -0.00021200 
      46      -5.98570956       3.93825079       1.97423722       0.00028300      -0.00037900      -0.00032900 
      46      -1.98225038       1.96221379       0.00004650       0.00307100      -0.00173700       0.00491700 
      46      -3.99550343      -2.00264488      -1.97444474      -0.00265100      -0.00139500       0.00051800 
      46      -5.96830149       5.90707652      -0.00004904      -0.00173200      -0.00224500      -0.00045300 
      46      -7.98155454       1.94221785      -1.97454028      -0.00187700      -0.00239600       0.00102400 
      46      -7.98142803       1.94224972       1.97424800      -0.00237000      -0.00438500       0.00166700 
      46      -3.99541063      -0.03517435      -3.94868038       0.01264400      -0.01140800      -0.00412100 
      46      -3.99528412      -0.03514248       0.00010791      -0.00040800       0.00175900      -0.00360500 
      46      -5.96808218       7.87457893       1.97450361      -0.00076700       0.00206500      -0.00363100 
      46      -7.98133523       3.90972025       0.00001237       0.01095800      -0.00789500      -0.00326200 
      46      -1.98215758       3.92968433      -1.97418913      -0.00030500       0.00175900      -0.00314700 
      47      -3.99297074       1.96569255      -5.92329179       0.00015700      -0.00171800       0.00029700 
      47      -3.99284423       1.96572442      -1.97450350      -0.00050100       0.00015800       0.00001500 
      47      -3.99271772       1.96575630       1.97428478      -0.00018200      -0.00038100      -0.00015600 
      47      -6.00597077      -1.99910238      -0.00020646      -0.00065200       0.00117000      -0.00097200 
      47      -7.97876883       5.91061903       1.97418925       0.00531700       0.00168200       0.00529300 
30
Lattice="-2.0133795567264436 -3.9648905504846392 -5.923279528770283 -5.999051144235596 -0.0199321972709132 5.922989789108618 -1.97292456729113 7.9096895320627905 -1.9743925813530911" Properties=Z:I:1:pos:R:3:vasp_force:R:3 uuid=e199353d-9b98-4e95-9684-708a214ea785 vasp_virial="-0.02666979745272938 0.03299048677661521 0.04489445166993353 0.03299048677661521 -0.09108815614533247 -0.0829678261111736 0.04489445166993353 -0.0829678261111736 -0.1515443790302775" vasp_energy=-144.19443088 pbc="T T T"
      46      -2.01759632      -3.94314380      -5.92357223       0.00119600      -0.00228400       0.00408100 
      46      -3.99039438       3.96657761      -3.94917653       0.00225000      -0.00099100       0.00384000 
      46      -3.99026787       3.96660948      -0.00038824       0.00072400      -0.00118800       0.00482400 
      46      -6.00352092       0.00175080      -1.97487949       0.00707700       0.00019900      -0.00097300 
      46      -6.00339441       0.00178268       1.97390880      -0.00966500      -0.00019400      -0.00493000 
      46      -2.01737993      -1.97549108      -3.94891230       0.00297500       0.00572000      -0.00277700 
      46      -3.99017799       5.93423033      -1.97451659       0.00143200       0.00276100      -0.00068800 
      46      -6.00343104       1.96937165      -3.94900784       0.00180400       0.00246800      -0.00158300 
      46      -6.00330453       1.96940353      -0.00021955      -0.00685000      -0.00525700      -0.00092200 
      46      -6.00317803       1.96943540       3.94856874       0.00123300      -0.01312600      -0.01580200 
      46      -8.00168093      -0.03196099      -0.00825121       0.01854200       0.04195800       0.05986200 
      46      -1.99978496      -0.00664381      -1.97445553      -0.00011700      -0.00172500      -0.00093000 
      46      -4.01303801      -3.97150249      -3.94894677      -0.00019100       0.00017400       0.00049500 
      46      -5.98583607       3.93821892      -1.97455106       0.00008900      -0.00059200       0.00016500 
      46      -5.98570956       3.93825079       1.97423722      -0.00030100      -0.00106400      -0.00191500 
      46      -1.98225038       1.96221379       0.00004650      -0.00949800      -0.01028100       0.00040900 
      46      -3.99550343      -2.00264488      -1.97444474      -0.00138500      -0.00229500       0.00067500 
      46      -5.96830149       5.90707652      -0.00004904      -0.00227100      -0.00185500      -0.00010500 
      46      -7.98155454       1.94221785      -1.97454028      -0.00136800       0.00085400      -0.00075000 
      46      -7.98142803       1.94224972       1.97424800      -0.00338700      -0.01765500      -0.01289700 
      46      -3.99541063      -0.03517435      -3.94868038       0.00457900       0.00306800      -0.00827200 
      46      -3.99528412      -0.03514248       0.00010791      -0.00064500       0.00167500      -0.00280600 
      46      -5.96808218       7.87457893       1.97450361       0.00047100       0.00149100      -0.00294400 
      46      -7.98133523       3.90972025       0.00001237      -0.00065300       0.00137100      -0.00324700 
      46      -1.98215758       3.92968433      -1.97418913      -0.01299100       0.00259400      -0.01394900 
      47      -3.99297074       1.96569255      -5.92329179       0.00416500      -0.00306300       0.00134000 
      47      -3.99284423       1.96572442      -1.97450350      -0.00059200       0.00023000      -0.00020700 
      47      -3.99271772       1.96575630       1.97428478      -0.00024300      -0.00054700      -0.00044500 
      47      -6.00597077      -1.99910238      -0.00020646       0.00403600      -0.00269800       0.00074700 
      47      -7.97876883       5.91061903       1.97418925      -0.00041600       0.00025300      -0.00029500 
30
Lattice="-2.0133795567264436 -3.9648905504846392 -5.923279528770283 -5.999051144235596 -0.0199321972709132 5.922989789108618 -1.97292456729113 7.9096895320627905 -1.9743925813530911" Properties=Z:I:1:pos:R:3:vasp_force:R:3 uuid=3a319b22-cb66-455f-aa61-a85851358464 vasp_virial="-0.026991684409038385 0.032551550018012035 0.045093436333833635 0.032551550018012035 -0.09145978926761648 -0.08311999085415604 0.045093436333833635 -0.08311999085415604 -0.15195990582842187" vasp_energy=-144.19442653 pbc="T T T"
      46      -2.01759632      -3.94314380      -5.92357223       0.00172700      -0.00133900       0.00401500 
      46      -3.99039438       3.96657761      -3.94917653       0.00081100      -0.00047900       0.00253200 
      46      -3.99026787       3.96660948      -0.00038824       0.00123700      -0.00135200       0.00451900 
      46      -6.00352092       0.00175080      -1.97487949      -0.00491200      -0.00193800       0.00766500 
      46      -6.00339441       0.00178268       1.97390880       0.01385400      -0.00192200       0.01523600 
      46      -2.01737993      -1.97549108      -3.94891230       0.00209400      -0.00113000       0.00180600 
      46      -3.99017799       5.93423033      -1.97451659       0.00186200       0.00201900      -0.00109600 
      46      -6.00343104       1.96937165      -3.94900784       0.00151100       0.00269700      -0.00138100 
      46      -6.00330453       1.96940353      -0.00021955       0.00886900       0.00973400      -0.00145100 
      46      -6.00317803       1.96943540       3.94856874       0.00250000       0.01747000       0.01318100 
      46      -7.99624429      -0.02125478       0.00774316      -0.01915100      -0.04147300      -0.06056300 
      46      -1.99978496      -0.00664381      -1.97445553       0.00057300      -0.00043500       0.00159500 
      46      -4.01303801      -3.97150249      -3.94894677      -0.00131100       0.00016100      -0.00029300 
      46      -5.98583607       3.93821892      -1.97455106      -0.00103100      -0.00060600      -0.00062200 
      46      -5.98570956       3.93825079       1.97423722       0.00038900       0.00022700       0.00061000 
      46      -1.98225038       1.96221379       0.00004650       0.00622000       0.00470900      -0.00012000 
      46      -3.99550343      -2.00264488      -1.97444474      -0.00167800      -0.00206500       0.00087600 
      46      -5.96830149       5.90707652      -0.00004904      -0.00184000      -0.00259700      -0.00051300 
      46      -7.98155454       1.94221785      -1.97454028      -0.00225000      -0.00599500       0.00383300 
      46      -7.98142803       1.94224972       1.97424800      -0.00212300       0.01293600       0.01608400 
      46      -3.99541063      -0.03517435      -3.94868038      -0.00740800       0.00093100       0.00036400 
      46      -3.99528412      -0.03514248       0.00010791      -0.00013200       0.00151200      -0.00311100 
      46      -5.96808218       7.87457893       1.97450361      -0.00096900       0.00200300      -0.00425200 
      46      -7.98133523       3.90972025       0.00001237      -0.00012100       0.00231700      -0.00331400 
      46      -1.98215758       3.92968433      -1.97418913       0.01052100       0.00086600       0.00621000 
      47      -3.99297074       1.96569255      -5.92329179      -0.00398700       0.00163800      -0.00107200 
      47      -3.99284423       1.96572442      -1.97450350      -0.00066000       0.00045600       0.00038400 
      47      -3.99271772       1.96575630       1.97428478      -0.00031100      -0.00032100       0.00014500 
      47      -6.00597077      -1.99910238      -0.00020646      -0.00411400       0.00200400      -0.00166500 
      47      -7.97876883       5.91061903       1.97418925      -0.00016900      -0.00002800       0.00039600 
30
Lattice="-2.0133795567264436 -3.9648905504846392 -5.923279528770283 -5.999051144235596 -0.0199321972709132 5.922989789108618 -1.97292456729113 7.9096895320627905 -1.9743925813530911" Properties=Z:I:1:pos:R:3:vasp_force:R:3 uuid=37f73f1c-d982-4827-8151-9d71fc8bf61a vasp_virial="-0.025475889469328727 0.03293488812052548 0.04353667396332102 0.03293488812052548 -0.0903390374106497 -0.08421440650560663 0.04353667396332102 -0.08421440650560663 -0.15137758306200833" vasp_energy=-144.19442007 pbc="T T T"
      46      -2.01759632      -3.94314380      -5.92357223       0.00154900      -0.00202800       0.00412300 
      46      -3.99039438       3.96657761      -3.94917653       0.00163000      -0.00015900       0.00263400 
      46      -3.99026787       3.96660948      -0.00038824       0.00049400      -0.00108100       0.00443400 
      46      -6.00352092       0.00175080      -1.97487949      -0.01308200      -0.00105500       0.01628100 
      46      -6.00339441       0.00178268       1.97390880       0.00269200      -0.00102800       0.00433500 
      46      -2.01737993      -1.97549108      -3.94891230       0.00251600      -0.00609700       0.00706400 
      46      -3.99017799       5.93423033      -1.97451659       0.00156400       0.00221300      -0.00121300 
      46      -6.00343104       1.96937165      -3.94900784       0.00122200       0.00240000      -0.00080700 
      46      -6.00330453       1.96940353      -0.00021955      -0.00531400      -0.00508500      -0.00126400 
      46      -6.00317803       1.96943540       3.94856874       0.00283200       0.01015400       0.00564800 
      46      -8.00607863      -0.02663153       0.00677177       0.05590700      -0.00245100      -0.05382000 
      46      -1.99978496      -0.00664381      -1.97445553       0.00048700      -0.00091100       0.00094700 
      46      -4.01303801      -3.97150249      -3.94894677      -0.00073000      -0.00024000       0.00051100 
      46      -5.98583607       3.93821892      -1.97455106      -0.00044700      -0.00098800       0.00019700 
      46      -5.98570956       3.93825079       1.97423722       0.00030000      -0.00027800      -0.00003600 
      46      -1.98225038       1.96221379       0.00004650      -0.00787800      -0.01011200      -0.00002200 
      46      -3.99550343      -2.00264488      -1.97444474      -0.00196300      -0.00237700       0.00146100 
      46      -5.96830149       5.90707652      -0.00004904      -0.00214100      -0.00240100      -0.00062400 
      46      -7.98155454       1.94221785      -1.97454028      -0.00188800      -0.01082600       0.00893500 
      46      -7.98142803       1.94224972       1.97424800      -0.00172900       0.00516000       0.00807900 
      46      -3.99541063      -0.03517435      -3.94868038      -0.01618100       0.00181300       0.00961000 
      46      -3.99528412      -0.03514248       0.00010791      -0.00087600       0.00178700      -0.00320300 
      46      -5.96808218       7.87457893       1.97450361      -0.00014000       0.00231400      -0.00412000 
      46      -7.98133523       3.90972025       0.00001237      -0.00030200       0.00162700      -0.00321700 
      46      -1.98215758       3.92968433      -1.97418913      -0.00021300       0.00173000      -0.00431400 
      47      -3.99297074       1.96569255      -5.92329179      -0.00816800       0.00897500      -0.00097900 
      47      -3.99284423       1.96572442      -1.97450350      -0.00111200       0.00022600       0.00041500 
      47      -3.99271772       1.96575630       1.97428478      -0.00078600      -0.00057200       0.00017300 
      47      -6.00597077      -1.99910238      -0.00020646      -0.00815200       0.00909500      -0.00153000 
      47      -7.97876883       5.91061903       1.97418925      -0.00009300       0.00019500       0.00030400 
30
Lattice="-2.0133795567264436 -3.9648905504846392 -5.923279528770283 -5.999051144235596 -0.0199321972709132 5.922989789108618 -1.97292456729113 7.9096895320627905 -1.9743925813530911" Properties=Z:I:1:pos:R:3:vasp_force:R:3 uuid=61228e1b-1fd6-46be-9f57-fce076c74db8 vasp_virial="-0.026429845358026307 0.03226477800239128 0.04358349388423868 0.03226477800239128 -0.09080723661982644 -0.08385447836355202 0.04358349388423868 -0.08385447836355202 -0.1514156242477539" vasp_energy=-144.19442172 pbc="T T T"
      46      -2.01759632      -3.94314380      -5.92357223       0.00135900      -0.00160600       0.00397700 
      46      -3.99039438       3.96657761      -3.94917653       0.00140500      -0.00131400       0.00370100 
      46      -3.99026787       3.96660948      -0.00038824       0.00145100      -0.00147700       0.00490900 
      46      -6.00352092       0.00175080      -1.97487949       0.01583400      -0.00069600      -0.01022600 
      46      -6.00339441       0.00178268       1.97390880       0.00105500      -0.00107100       0.00559100 
      46      -2.01737993      -1.97549108      -3.94891230       0.00259600       0.01053700      -0.00788600 
      46      -3.99017799       5.93423033      -1.97451659       0.00171500       0.00255200      -0.00058300 
      46      -6.00343104       1.96937165      -3.94900784       0.00207200       0.00276700      -0.00217400 
      46      -6.00330453       1.96940353      -0.00021955       0.00723200       0.00955200      -0.00102700 
      46      -6.00317803       1.96943540       3.94856874       0.00082200      -0.00536000      -0.00780300 
      46      -7.99184660      -0.02658424      -0.00727981      -0.05602100       0.00329600       0.05332400 
      46      -1.99978496      -0.00664381      -1.97445553      -0.00004500      -0.00123300      -0.00029100 
      46      -4.01303801      -3.97150249      -3.94894677      -0.00079200       0.00054400      -0.00033200 
      46      -5.98583607       3.93821892      -1.97455106      -0.00050900      -0.00020400      -0.00064600 
      46      -5.98570956       3.93825079       1.97423722      -0.00023200      -0.00060000      -0.00127400 
      46      -1.98225038       1.96221379       0.00004650       0.00466700       0.00452500       0.00021500 
      46      -3.99550343      -2.00264488      -1.97444474      -0.00111300      -0.00201000       0.00009400 
      46      -5.96830149       5.90707652      -0.00004904      -0.00198900      -0.00206100       0.00000500 
      46      -7.98155454       1.94221785      -1.97454028      -0.00180900       0.00580900      -0.00601600 
      46      -7.98142803       1.94224972       1.97424800      -0.00373700      -0.01035200      -0.00537100 
      46      -3.99541063      -0.03517435      -3.94868038       0.01273100       0.00217300      -0.01689500 