  30
   1   1
     7.382438181242303     0.246794452132167     0.120735903066719
     0.237642230980915     7.743052795890209     0.254819448362214
     0.149209665574687     0.219077092722525     7.289213077311112
   1   2
    -0.017434819075294     0.003428478919666    -0.014534238636730
     0.000851869184517    -0.088298859194662     0.002383456747591
    -0.040420342679654     0.004473979365737    -0.018957057870702
   1   3
    -0.030530961876193     0.002274690190919     0.133655940663955
     0.020641715697764    -0.020389893222018     0.000973628510449
     0.109265433913440     0.021175421567795    -0.025535517037904
   1   4
    -0.030687467715053     0.020137749509601     0.110519440050264
     0.002660563868818    -0.020342734783954     0.020138747486470
     0.132771157025710     0.002182906855025    -0.025150017844529
   1   5
    -0.017420024126962     0.000471170378848    -0.039493045055462
     0.003579725307573    -0.088253436975487     0.003355786577629
    -0.015557591546960     0.003964258557030    -0.018935053694990
   1   6
    -0.881594617221229    -1.135506837724391     0.001851283346395
    -1.017798371310733    -0.984419748389581     0.009093283278646
     0.014707468441783    -0.006000518121160     0.075812739904476
   1   7
     0.072538002553064    -0.007135443028269     0.012797996027558
     0.012527222741678    -0.957980974885559    -0.992826171394252
    -0.000747972221377    -1.113440897175475    -0.858601553081323
   1   8
    -0.031489932369924     0.040686419331527    -0.051290430269821
     0.021471814159318    -0.020660280959726     0.028725414289809
    -0.073182481351929     0.025435813529420    -0.128492991896211
   1   9
     0.000174357086493    -0.007130691166741     0.027917423564169
     0.001646717236664    -0.107645738969589     0.001592645321590
     0.027183867080436    -0.007454356207902     0.004377544126154
   1  10
    -0.131673355164380     0.027923864129106    -0.070498002902836
     0.024741238689431    -0.021411629012275     0.019726804733317
    -0.052799046732687     0.042130461935943    -0.030793916015100
   1  11
     0.117340230433124    -0.018965050702454    -0.013706088420368
    -0.026891850250819     0.108985007487122    -0.013735419692899
    -0.045423790253429    -0.029631322206025     0.059392455901408
   1  12
    -0.987172366118553    -0.006116324790653     1.200552816199155
    -0.005604326626664     0.098245258930226    -0.008918678648141
     1.200945046426461    -0.004412757742435    -0.992597366237758
   1  13
     0.053761823197817    -0.033597333958536    -0.041032841030333
    -0.016989243869918     0.101103575659044    -0.024793269521367
    -0.012711694250429    -0.017299196047378     0.113126096083542
   1  14
     0.053641688999228    -0.005643466783844    -0.047625408525321
    -0.046247367199323    -0.923911737415823     0.960994031091121
    -0.006469726846937     1.020568527909512    -0.883529368604040
   1  15
    -0.897025074797220     1.038190034506823    -0.002760792900162
     0.980439885133742    -0.939746185672135    -0.052137316393090
    -0.045478529419220    -0.010051758104740     0.058691157080068
   1  16
    -0.033184848109722    -0.037607785461052     0.070177035939577
    -0.028616551770722    -0.006187211116840     0.003214028451446
     0.087100521322098     0.042315937002520    -0.017256676700148
   1  17
    -0.016406302879527     0.042254114164655     0.086802051178393
     0.001637693350965    -0.005241615161044    -0.024813705484974
     0.068114329206695    -0.032844354505236    -0.031700159430540
   1  18
    -0.985958659769548    -0.010870744441482    -1.178667610990201
     0.020832319190872     0.094947289213230     0.001838425864620
    -0.976862603395650     0.000086146747475    -0.995665525440183
   1  19
    -0.038486631077586     0.002284028609238    -0.051803941748840
    -0.012777997620130    -0.158130720970954    -0.011817163726492
    -0.052200721126410     0.006637971769894    -0.034586579171104
   1  20
    -0.992543338790621    -0.004646898360987    -0.973839244293123
     0.000414444723587     0.093186993477308     0.013535191721272
    -1.177284134157149    -0.012665033871171    -0.989348308967703
   1  21
     0.004044905652850    -0.046318816016124    -0.056023565147607
    -0.046237754892560     0.108471869631342    -0.046299284488891
    -0.056675694360511    -0.044930787899004    -0.000417780063725
   1  22
    -0.703652575063808    -0.017191511859940     0.777012685667453
    -0.016245337927520     0.031058469177928    -0.016876653383825
     0.776413693623974    -0.016089555303898    -0.704296686605243
   1  23
     0.001203091310604    -0.047802184559912    -0.056427990846361
    -0.047685467104226     0.109804035452943    -0.049212973585119
    -0.057824829672287    -0.047728733309565     0.009152915693191
   1  24
    -0.956595314976609     1.174415581588576     0.022756351998521
     1.174697501758188    -1.035349979541999    -0.023773757247434
     0.021477514888738    -0.022117818810453     0.041966333696818
   1  25
     0.040323272890628    -0.017331692703544     0.021258798120778
    -0.017235486236113    -1.016407509769899     1.158703574732960
     0.020056901331254     1.159531691925794    -0.943754795093952
   1  26
     0.173642189893147    -0.006158252524070     0.002460595606566
     0.008456284631545    -1.022544694717264    -1.246860140396123
    -0.000178030429208    -1.218538500685000    -1.037331115555312
   1  27
    -1.051069615375046    -1.233391853114895     0.002426694654637
    -1.257369288461823    -1.038932936347370     0.006172495269004
     0.000419077547618    -0.005997418160062     0.174414050769714
   1  28
    -0.095831663133225     0.018820244333187    -0.007015162602739
     0.016790706195753     0.011091179053017     0.007694064486991
    -0.023856671416984     0.019820290190103     0.001776851020168
   1  29
     0.000007137261720    -0.001118225497890     0.036083532962633
     0.001489333145235    -0.056554942034486     0.002146977934007
     0.036857953920551     0.000028614890807     0.004081034345642
   1  30
    -0.000355372390010     0.018852042853848    -0.022289295905110
     0.009178275414619     0.012463854986506     0.016956028506381
    -0.006847541918753     0.021774357969920    -0.095053605511443
   2   1
    -0.017420024126962     0.000471170378848    -0.039493045055462
     0.003579725307573    -0.088253436975487     0.003355786577629
    -0.015557591546960     0.003964258557030    -0.018935053694990
   2   2
     7.382438181242303     0.246794452132167     0.120735903066718
     0.237642230980915     7.743052795890213     0.254819448362214
     0.149209665574687     0.219077092722525     7.289213077311112
   2   3
    -0.017434819075294     0.003428478919666    -0.014534238636730
     0.000851869184517    -0.088298859194662     0.002383456747591
    -0.040420342679654     0.004473979365737    -0.018957057870702
   2   4
    -0.030530961876193     0.002274690190919     0.133655940663955
     0.020641715697764    -0.020389893222018     0.000973628510449
     0.109265433913440     0.021175421567795    -0.025535517037904
   2   5
    -0.030687467715053     0.020137749509601     0.110519440050264
     0.002660563868818    -0.020342734783954     0.020138747486470
     0.132771157025710     0.002182906855025    -0.025150017844529
   2   6
    -0.131673355164380     0.027923864129106    -0.070498002902836
     0.024741238689431    -0.021411629012275     0.019726804733317
    -0.052799046732687     0.042130461935943    -0.030793916015100
   2   7
    -0.881594617221229    -1.135506837724392     0.001851283346395
    -1.017798371310734    -0.984419748389581     0.009093283278646
     0.014707468441783    -0.006000518121160     0.075812739904476
   2   8
     0.072538002553064    -0.007135443028270     0.012797996027558
     0.012527222741678    -0.957980974885560    -0.992826171394252
    -0.000747972221377    -1.113440897175475    -0.858601553081323
   2   9
    -0.031489932369924     0.040686419331527    -0.051290430269821
     0.021471814159318    -0.020660280959726     0.028725414289809
    -0.073182481351929     0.025435813529420    -0.128492991896211
   2  10
     0.000174357086493    -0.007130691166741     0.027917423564169
     0.001646717236664    -0.107645738969589     0.001592645321590
     0.027183867080436    -0.007454356207902     0.004377544126154
   2  11
    -0.897025074797220     1.038190034506823    -0.002760792900162
     0.980439885133743    -0.939746185672136    -0.052137316393090
    -0.045478529419220    -0.010051758104740     0.058691157080068
   2  12
     0.117340230433124    -0.018965050702454    -0.013706088420368
    -0.026891850250819     0.108985007487122    -0.013735419692899
    -0.045423790253429    -0.029631322206025     0.059392455901408
   2  13
    -0.987172366118553    -0.006116324790653     1.200552816199155
    -0.005604326626664     0.098245258930226    -0.008918678648141
     1.200945046426461    -0.004412757742435    -0.992597366237759
   2  14
     0.053761823197817    -0.033597333958536    -0.041032841030333
    -0.016989243869918     0.101103575659044    -0.024793269521367
    -0.012711694250429    -0.017299196047378     0.113126096083542
   2  15
     0.053641688999228    -0.005643466783844    -0.047625408525321
    -0.046247367199323    -0.923911737415824     0.960994031091121
    -0.006469726846937     1.020568527909512    -0.883529368604040
   2  16
    -0.992543338790621    -0.004646898360987    -0.973839244293123
     0.000414444723587     0.093186993477308     0.013535191721272
    -1.177284134157149    -0.012665033871171    -0.989348308967702
   2  17
    -0.033184848109722    -0.037607785461052     0.070177035939577
    -0.028616551770722    -0.006187211116840     0.003214028451446
     0.087100521322098     0.042315937002520    -0.017256676700148
   2  18
    -0.016406302879527     0.042254114164655     0.086802051178393
     0.001637693350965    -0.005241615161044    -0.024813705484974
     0.068114329206695    -0.032844354505236    -0.031700159430540
   2  19
    -0.985958659769548    -0.010870744441482    -1.178667610990201
     0.020832319190872     0.094947289213230     0.001838425864620
    -0.976862603395650     0.000086146747475    -0.995665525440183
   2  20
    -0.038486631077586     0.002284028609238    -0.051803941748840
    -0.012777997620130    -0.158130720970954    -0.011817163726492
    -0.052200721126410     0.006637971769894    -0.034586579171104
   2  21
     0.040323272890628    -0.017331692703544     0.021258798120778
    -0.017235486236113    -1.016407509769899     1.158703574732961
     0.020056901331254     1.159531691925794    -0.943754795093952
   2  22
     0.004044905652850    -0.046318816016124    -0.056023565147607
    -0.046237754892560     0.108471869631342    -0.046299284488891
    -0.056675694360511    -0.044930787899004    -0.000417780063725
   2  23
    -0.703652575063808    -0.017191511859940     0.777012685667453
    -0.016245337927520     0.031058469177928    -0.016876653383825
     0.776413693623974    -0.016089555303898    -0.704296686605243
   2  24
     0.001203091310604    -0.047802184559912    -0.056427990846361
    -0.047685467104226     0.109804035452943    -0.049212973585119
    -0.057824829672287    -0.047728733309565     0.009152915693191
   2  25
    -0.956595314976609     1.174415581588576     0.022756351998521
     1.174697501758188    -1.035349979541999    -0.023773757247434
     0.021477514888738    -0.022117818810453     0.041966333696818
   2  26
    -0.000355372390010     0.018852042853848    -0.022289295905110
     0.009178275414619     0.012463854986506     0.016956028506381
    -0.006847541918753     0.021774357969920    -0.095053605511443
   2  27
     0.173642189893147    -0.006158252524070     0.002460595606566
     0.008456284631545    -1.022544694717264    -1.246860140396124
    -0.000178030429208    -1.218538500685000    -1.037331115555312
   2  28
    -1.051069615375046    -1.233391853114896     0.002426694654637
    -1.257369288461824    -1.038932936347370     0.006172495269004
     0.000419077547618    -0.005997418160062     0.174414050769714
   2  29
    -0.095831663133225     0.018820244333187    -0.007015162602739
     0.016790706195753     0.011091179053017     0.007694064486991
    -0.023856671416984     0.019820290190104     0.001776851020168
   2  30
     0.000007137261720    -0.001118225497890     0.036083532962633
     0.001489333145235    -0.056554942034486     0.002146977934007
     0.036857953920551     0.000028614890807     0.004081034345642
   3   1
    -0.030687467715053     0.020137749509601     0.110519440050264
     0.002660563868818    -0.020342734783954     0.020138747486470
     0.132771157025710     0.002182906855025    -0.025150017844529
   3   2
    -0.017420024126962     0.000471170378848    -0.039493045055462
     0.003579725307573    -0.088253436975487     0.003355786577629
    -0.015557591546960     0.003964258557030    -0.018935053694990
   3   3
     7.382438181242303     0.246794452132167     0.120735903066718
     0.237642230980915     7.743052795890213     0.254819448362214
     0.149209665574687     0.219077092722525     7.289213077311112
   3   4
    -0.017434819075294     0.003428478919666    -0.014534238636730
     0.000851869184517    -0.088298859194662     0.002383456747591
    -0.040420342679654     0.004473979365737    -0.018957057870702
   3   5
    -0.030530961876193     0.002274690190919     0.133655940663955
     0.020641715697764    -0.020389893222018     0.000973628510449
     0.109265433913440     0.021175421567795    -0.025535517037904
   3   6
     0.000174357086493    -0.007130691166741     0.027917423564169
     0.001646717236664    -0.107645738969589     0.001592645321590
     0.027183867080436    -0.007454356207902     0.004377544126154
   3   7
    -0.131673355164380     0.027923864129106    -0.070498002902836
     0.024741238689431    -0.021411629012275     0.019726804733317
    -0.052799046732687     0.042130461935943    -0.030793916015100
   3   8
    -0.881594617221229    -1.135506837724392     0.001851283346395
    -1.017798371310734    -0.984419748389581     0.009093283278646
     0.014707468441783    -0.006000518121160     0.075812739904476
   3   9
     0.072538002553064    -0.007135443028270     0.012797996027558
     0.012527222741678    -0.957980974885560    -0.992826171394252
    -0.000747972221377    -1.113440897175475    -0.858601553081323
   3  10
    -0.031489932369924     0.040686419331527    -0.051290430269821
     0.021471814159318    -0.020660280959726     0.028725414289809
    -0.073182481351929     0.025435813529420    -0.128492991896211
   3  11
     0.053641688999228    -0.005643466783844    -0.047625408525321
    -0.046247367199323    -0.923911737415824     0.960994031091121
    -0.006469726846937     1.020568527909512    -0.883529368604040
   3  12
    -0.897025074797220     1.038190034506823    -0.002760792900162
     0.980439885133743    -0.939746185672136    -0.052137316393090
    -0.045478529419220    -0.010051758104740     0.058691157080068
   3  13
     0.117340230433124    -0.018965050702454    -0.013706088420368
    -0.026891850250819     0.108985007487122    -0.013735419692899
    -0.045423790253429    -0.029631322206025     0.059392455901408
   3  14
    -0.987172366118553    -0.006116324790653     1.200552816199155
    -0.005604326626664     0.098245258930226    -0.008918678648141
     1.200945046426461    -0.004412757742435    -0.992597366237759
   3  15
     0.053761823197817    -0.033597333958536    -0.041032841030333
    -0.016989243869918     0.101103575659044    -0.024793269521367
    -0.012711694250429    -0.017299196047378     0.113126096083542
   3  16
    -0.038486631077586     0.002284028609238    -0.051803941748840
    -0.012777997620130    -0.158130720970954    -0.011817163726492
    -0.052200721126410     0.006637971769894    -0.034586579171104
   3  17
    -0.992543338790621    -0.004646898360987    -0.973839244293123
     0.000414444723587     0.093186993477308     0.013535191721272
    -1.177284134157149    -0.012665033871171    -0.989348308967702
   3  18
    -0.033184848109722    -0.037607785461052     0.070177035939577
    -0.028616551770722    -0.006187211116840     0.003214028451446
     0.087100521322098     0.042315937002520    -0.017256676700148
   3  19
    -0.016406302879527     0.042254114164655     0.086802051178393
     0.001637693350965    -0.005241615161044    -0.024813705484974
     0.068114329206695    -0.032844354505236    -0.031700159430540
   3  20
    -0.985958659769548    -0.010870744441482    -1.178667610990201
     0.020832319190872     0.094947289213230     0.001838425864620
    -0.976862603395650     0.000086146747475    -0.995665525440183
   3  21
    -0.956595314976609     1.174415581588576     0.022756351998521
     1.174697501758188    -1.035349979541999    -0.023773757247434
     0.021477514888738    -0.022117818810453     0.041966333696818
   3  22
     0.040323272890628    -0.017331692703544     0.021258798120778
    -0.017235486236113    -1.016407509769899     1.158703574732961
     0.020056901331254     1.159531691925794    -0.943754795093952
   3  23
     0.004044905652850    -0.046318816016124    -0.056023565147607
    -0.046237754892560     0.108471869631342    -0.046299284488891
    -0.056675694360511    -0.044930787899004    -0.000417780063725
   3  24
    -0.703652575063808    -0.017191511859940     0.777012685667453
    -0.016245337927520     0.031058469177928    -0.016876653383825
     0.776413693623974    -0.016089555303898    -0.704296686605243
   3  25
     0.001203091310604    -0.047802184559912    -0.056427990846361
    -0.047685467104226     0.109804035452943    -0.049212973585119
    -0.057824829672287    -0.047728733309565     0.009152915693191
   3  26
     0.000007137261720    -0.001118225497890     0.036083532962633
     0.001489333145235    -0.056554942034486     0.002146977934007
     0.036857953920551     0.000028614890807     0.004081034345642
   3  27
    -0.000355372390010     0.018852042853848    -0.022289295905110
     0.009178275414619     0.012463854986506     0.016956028506381
    -0.006847541918753     0.021774357969920    -0.095053605511443
   3  28
     0.173642189893147    -0.006158252524070     0.002460595606566
     0.008456284631545    -1.022544694717264    -1.246860140396124
    -0.000178030429208    -1.218538500685000    -1.037331115555312
   3  29
    -1.051069615375046    -1.233391853114896     0.002426694654637
    -1.257369288461824    -1.038932936347370     0.006172495269004
     0.000419077547618    -0.005997418160062     0.174414050769714
   3  30
    -0.095831663133225     0.018820244333187    -0.007015162602739
     0.016790706195753     0.011091179053017     0.007694064486991
    -0.023856671416984     0.019820290190104     0.001776851020168
   4   1
    -0.030530961876193     0.002274690190919     0.133655940663955
     0.020641715697764    -0.020389893222018     0.000973628510449
     0.109265433913440     0.021175421567795    -0.025535517037904
   4   2
    -0.030687467715053     0.020137749509601     0.110519440050264
     0.002660563868818    -0.020342734783954     0.020138747486470
     0.132771157025710     0.002182906855025    -0.025150017844529
   4   3
    -0.017420024126962     0.000471170378848    -0.039493045055462
     0.003579725307573    -0.088253436975487     0.003355786577629
    -0.015557591546960     0.003964258557030    -0.018935053694990
   4   4
     7.382438181242303     0.246794452132167     0.120735903066718
     0.237642230980915     7.743052795890213     0.254819448362214
     0.149209665574687     0.219077092722525     7.289213077311112
   4   5
    -0.017434819075294     0.003428478919666    -0.014534238636730
     0.000851869184517    -0.088298859194662     0.002383456747591
    -0.040420342679654     0.004473979365737    -0.018957057870702
   4   6
    -0.031489932369924     0.040686419331527    -0.051290430269821
     0.021471814159318    -0.020660280959726     0.028725414289809
    -0.073182481351929     0.025435813529420    -0.128492991896211
   4   7
     0.000174357086493    -0.007130691166741     0.027917423564169
     0.001646717236664    -0.107645738969589     0.001592645321590
     0.027183867080436    -0.007454356207902     0.004377544126154
   4   8
    -0.131673355164380     0.027923864129106    -0.070498002902836
     0.024741238689431    -0.021411629012275     0.019726804733317
    -0.052799046732687     0.042130461935943    -0.030793916015100
   4   9
    -0.881594617221229    -1.135506837724392     0.001851283346395
    -1.017798371310734    -0.984419748389581     0.009093283278646
     0.014707468441783    -0.006000518121160     0.075812739904476
   4  10
     0.072538002553064    -0.007135443028270     0.012797996027558
     0.012527222741678    -0.957980974885560    -0.992826171394252
    -0.000747972221377    -1.113440897175475    -0.858601553081323
   4  11
     0.053761823197817    -0.033597333958536    -0.041032841030333
    -0.016989243869918     0.101103575659044    -0.024793269521367
    -0.012711694250429    -0.017299196047378     0.113126096083542
   4  12
     0.053641688999228    -0.005643466783844    -0.047625408525321
    -0.046247367199323    -0.923911737415824     0.960994031091121
    -0.006469726846937     1.020568527909512    -0.883529368604040
   4  13
    -0.897025074797220     1.038190034506823    -0.002760792900162
     0.980439885133743    -0.939746185672136    -0.052137316393090
    -0.045478529419220    -0.010051758104740     0.058691157080068
   4  14
     0.117340230433124    -0.018965050702454    -0.013706088420368
    -0.026891850250819     0.108985007487122    -0.013735419692899
    -0.045423790253429    -0.029631322206025     0.059392455901408
   4  15
    -0.987172366118553    -0.006116324790653     1.200552816199155
    -0.005604326626664     0.098245258930226    -0.008918678648141
     1.200945046426461    -0.004412757742435    -0.992597366237759
   4  16
    -0.985958659769548    -0.010870744441482    -1.178667610990201
     0.020832319190872     0.094947289213230     0.001838425864620
    -0.976862603395650     0.000086146747475    -0.995665525440183
   4  17
    -0.038486631077586     0.002284028609238    -0.051803941748840
    -0.012777997620130    -0.158130720970954    -0.011817163726492
    -0.052200721126410     0.006637971769894    -0.034586579171104
   4  18
    -0.992543338790621    -0.004646898360987    -0.973839244293123
     0.000414444723587     0.093186993477308     0.013535191721272
    -1.177284134157149    -0.012665033871171    -0.989348308967702
   4  19
    -0.033184848109722    -0.037607785461052     0.070177035939577
    -0.028616551770722    -0.006187211116840     0.003214028451446
     0.087100521322098     0.042315937002520    -0.017256676700148
   4  20
    -0.016406302879527     0.042254114164655     0.086802051178393
     0.001637693350965    -0.005241615161044    -0.024813705484974
     0.068114329206695    -0.032844354505236    -0.031700159430540
   4  21
     0.001203091310604    -0.047802184559912    -0.056427990846361
    -0.047685467104226     0.109804035452943    -0.049212973585119
    -0.057824829672287    -0.047728733309565     0.009152915693191
   4  22
    -0.956595314976609     1.174415581588576     0.022756351998521
     1.174697501758188    -1.035349979541999    -0.023773757247434
     0.021477514888738    -0.022117818810453     0.041966333696818
   4  23
     0.040323272890628    -0.017331692703544     0.021258798120778
    -0.017235486236113    -1.016407509769899     1.158703574732961
     0.020056901331254     1.159531691925794    -0.943754795093952
   4  24
     0.004044905652850    -0.046318816016124    -0.056023565147607
    -0.046237754892560     0.108471869631342    -0.046299284488891
    -0.056675694360511    -0.044930787899004    -0.000417780063725
   4  25
    -0.703652575063808    -0.017191511859940     0.777012685667453
    -0.016245337927520     0.031058469177928    -0.016876653383825
     0.776413693623974    -0.016089555303898    -0.704296686605243
   4  26
    -0.095831663133225     0.018820244333187    -0.007015162602739
     0.016790706195753     0.011091179053017     0.007694064486991
    -0.023856671416984     0.019820290190104     0.001776851020168
   4  27
     0.000007137261720    -0.001118225497890     0.036083532962633
     0.001489333145235    -0.056554942034486     0.002146977934007
     0.036857953920551     0.000028614890807     0.004081034345642
   4  28
    -0.000355372390010     0.018852042853848    -0.022289295905110
     0.009178275414619     0.012463854986506     0.016956028506381
    -0.006847541918753     0.021774357969920    -0.095053605511443
   4  29
     0.173642189893147    -0.006158252524070     0.002460595606566
     0.008456284631545    -1.022544694717264    -1.246860140396124
    -0.000178030429208    -1.218538500685000    -1.037331115555312
   4  30
    -1.051069615375046    -1.233391853114896     0.002426694654637
    -1.257369288461824    -1.038932936347370     0.006172495269004
     0.000419077547618    -0.005997418160062     0.174414050769714
   5   1
    -0.017434819075294     0.003428478919666    -0.014534238636730
     0.000851869184517    -0.088298859194662     0.002383456747591
    -0.040420342679654     0.004473979365737    -0.018957057870702
   5   2
    -0.030530961876193     0.002274690190919     0.133655940663955
     0.020641715697764    -0.020389893222018     0.000973628510449
     0.109265433913440     0.021175421567795    -0.025535517037904
   5   3
    -0.030687467715053     0.020137749509601     0.110519440050264
     0.002660563868818    -0.020342734783954     0.020138747486470
     0.132771157025710     0.002182906855025    -0.025150017844529
   5   4
    -0.017420024126962     0.000471170378848    -0.039493045055462
     0.003579725307573    -0.088253436975487     0.003355786577629
    -0.015557591546960     0.003964258557030    -0.018935053694990
   5   5
     7.382438181242303     0.246794452132167     0.120735903066718
     0.237642230980915     7.743052795890213     0.254819448362214
     0.149209665574687     0.219077092722525     7.289213077311112
   5   6
     0.072538002553064    -0.007135443028270     0.012797996027558
     0.012527222741678    -0.957980974885560    -0.992826171394252
    -0.000747972221377    -1.113440897175475    -0.858601553081323
   5   7
    -0.031489932369924     0.040686419331527    -0.051290430269821
     0.021471814159318    -0.020660280959726     0.028725414289809
    -0.073182481351929     0.025435813529420    -0.128492991896211
   5   8
     0.000174357086493    -0.007130691166741     0.027917423564169
     0.001646717236664    -0.107645738969589     0.001592645321590
     0.027183867080436    -0.007454356207902     0.004377544126154
   5   9
    -0.131673355164380     0.027923864129106    -0.070498002902836
     0.024741238689431    -0.021411629012275     0.019726804733317
    -0.052799046732687     0.042130461935943    -0.030793916015100
   5  10
    -0.881594617221229    -1.135506837724392     0.001851283346395
    -1.017798371310734    -0.984419748389581     0.009093283278646
     0.014707468441783    -0.006000518121160     0.075812739904476
   5  11
    -0.987172366118553    -0.006116324790653     1.200552816199155
    -0.005604326626664     0.098245258930226    -0.008918678648141
     1.200945046426461    -0.004412757742435    -0.992597366237759
   5  12
     0.053761823197817    -0.033597333958536    -0.041032841030333
    -0.016989243869918     0.101103575659044    -0.024793269521367
    -0.012711694250429    -0.017299196047378     0.113126096083542
   5  13
     0.053641688999228    -0.005643466783844    -0.047625408525321
    -0.046247367199323    -0.923911737415824     0.960994031091121
    -0.006469726846937     1.020568527909512    -0.883529368604040
   5  14
    -0.897025074797220     1.038190034506823    -0.002760792900162
     0.980439885133743    -0.939746185672136    -0.052137316393090
    -0.045478529419220    -0.010051758104740     0.058691157080068
   5  15
     0.117340230433124    -0.018965050702454    -0.013706088420368
    -0.026891850250819     0.108985007487122    -0.013735419692899
    -0.045423790253429    -0.029631322206025     0.059392455901408
   5  16
    -0.016406302879527     0.042254114164655     0.086802051178393
     0.001637693350965    -0.005241615161044    -0.024813705484974
     0.068114329206695    -0.032844354505236    -0.031700159430540
   5  17
    -0.985958659769548    -0.010870744441482    -1.178667610990201
     0.020832319190872     0.094947289213230     0.001838425864620
    -0.976862603395650     0.000086146747475    -0.995665525440183
   5  18
    -0.038486631077586     0.002284028609238    -0.051803941748840
    -0.012777997620130    -0.158130720970954    -0.011817163726492
    -0.052200721126410     0.006637971769894    -0.034586579171104
   5  19
    -0.992543338790621    -0.004646898360987    -0.973839244293123
     0.000414444723587     0.093186993477308     0.013535191721272
    -1.177284134157149    -0.012665033871171    -0.989348308967702
   5  20
    -0.033184848109722    -0.037607785461052     0.070177035939577
    -0.028616551770722    -0.006187211116840     0.003214028451446
     0.087100521322098     0.042315937002520    -0.017256676700148
   5  21
    -0.703652575063808    -0.017191511859940     0.777012685667453
    -0.016245337927520     0.031058469177928    -0.016876653383825
     0.776413693623974    -0.016089555303898    -0.704296686605243
   5  22
     0.001203091310604    -0.047802184559912    -0.056427990846361
    -0.047685467104226     0.109804035452943    -0.049212973585119
    -0.057824829672287    -0.047728733309565     0.009152915693191
   5  23
    -0.956595314976609     1.174415581588576     0.022756351998521
     1.174697501758188    -1.035349979541999    -0.023773757247434