  30
   1   1
     5.880903594959630    -0.088555857352731    -0.009329723531570
    -0.149473559798002     5.971728420206086     0.001512017901829
    -0.011632483949830     0.007739697649768     6.600775123804222
   1   2
    -0.648782365683260    -0.661585802714383    -0.010757270928374
    -0.767544178432446    -0.660314407219031    -0.014779170614096
    -0.010871487301219    -0.010948520255167    -0.026425005219729
   1   3
    -0.028326487806920    -0.059185924420549     0.006690216504135
    -0.039895658252632    -0.026106272614604     0.018737961032012
     0.016280861764292     0.009301979373378    -0.031976152411021
   1   4
    -0.028267770438945    -0.042024843151593     0.016187427413684
    -0.057077700569992    -0.026146961844572     0.009519285776616
     0.006700592743228     0.018546553382565    -0.031964667553936
   1   5
    -0.648690952141438    -0.769479631380922    -0.010835126737118
    -0.659413295774108    -0.660187437695664    -0.010604163170190
    -0.010815059500179    -0.015143637513626    -0.026455303704980
   1   6
    -0.653230899487572     0.829617110585209     0.011094524711623
     0.831659991552124    -0.654399568667917     0.004594147385713
     0.011267304971538     0.004233193471643     0.049769164456904
   1   7
     0.043910237473860    -0.000274564601016    -0.027707984821043
     0.001905685201708    -0.037963695289149    -0.005575035123597
    -0.027654255728154    -0.005814132453670     0.030907015918508
   1   8
     0.006080860441924    -0.002054910339630     0.001721378794801
     0.000069031681354     0.010778464619513     0.017242875886150
     0.001871237819426     0.017029009495632    -0.003514420927012
   1   9
     0.000569603371799    -0.008393205189394     0.020507180731411
    -0.006307346375996    -0.001777001514174    -0.001162476762473
     0.020608880844460    -0.001369254525966    -0.004076351986167
   1  10
    -0.015441972797048     0.010560036200585    -0.006237132614488
     0.012592710317329     0.041415723757053    -0.022137869328545
    -0.006196074031502    -0.022398379469238     0.038226559756683
   1  11
    -0.036355655802209     0.013738804104963    -0.001980606488442
     0.031515465750382    -0.019210352999255     0.003800333538128
    -0.007845632702703    -0.001371632244318    -0.020141568037985
   1  12
    -0.010424484329251     0.029923484664977     0.000796947568682
     0.018741567414392    -0.035329426941975    -0.008161633150494
    -0.006015365044303    -0.025220189879033    -0.021479402674641
   1  13
    -0.035544203868518     0.015512282836867     0.011943414882263
     0.032538873939683    -0.023979683651305     0.004130627649811
     0.010344589183604    -0.000801186378035    -0.025140527179326
   1  14
    -0.002086738930373     0.006496313438094    -0.007757881191132
     0.001571515307612    -0.014531009612959     0.000330799440436
    -0.005147156574507     0.008216350114649    -0.006338882932160
   1  15
    -0.007022553079098     0.023297485256630    -0.005731399268099
     0.015904771212058    -0.017450207016542     0.004147232600837
     0.004599505925304     0.022631169353968    -0.013367061485850
   1  16
    -0.049084254310287     0.042214823693842    -0.001432539478361
     0.030208249519723    -0.005488116694160    -0.005764751110929
    -0.000174404186455    -0.002799093539046     0.030042961977758
   1  17
    -0.008120788869862     0.001181502657703     0.023713537983711
    -0.001446219484779    -0.007003275536707    -0.016432635257403
     0.009932873848047    -0.008574766680037    -0.007398769433445
   1  18
    -0.003223506234571     0.005102452232309    -0.018502792978331
     0.000742144858821    -0.002158905291017     0.020327362484373
    -0.005548455002714     0.004610452332364    -0.007293318067206
   1  19
     0.029877764627699    -0.008985876702407    -0.005927339995290
     0.011777928649633    -0.033627344971343    -0.004754830638357
    -0.005970995374920     0.000084583584324     0.017083257181790
   1  20
    -0.676021979951799     0.726107079630259     0.000964257670725
     0.735039434354559    -0.673342620649608     0.002971226708677
     0.003194316031014     0.001365522953557     0.045985974778576
   1  21
     0.085968092277310     0.000054886624679    -0.007693277487636
    -0.027292656843998    -0.875304501634312    -0.936563116780365
    -0.011895344412605    -0.964909401973565    -0.837936016999960
   1  22
    -0.868490640542121    -0.015132570396597     0.949033289440742
    -0.001204522211176     0.093568474339198    -0.001233461805009
     0.974850358603259     0.004189736851735    -0.833730798698575
   1  23
     0.002157183685022    -0.003291768015087    -0.000845339021298
    -0.003345514165905     0.000169034029270     0.000063963449818
     0.006739017195866    -0.000425613681882    -0.005040315836000
   1  24
     0.093170046416566    -0.000165712597829     0.001212608081868
    -0.004270988204369    -0.879811151976689     0.953637384744119
     0.006241818347517     0.976900061607195    -0.840631320254027
   1  25
    -0.862204398972291    -0.027351511435324    -0.934857570465009
     0.000608806876739     0.096303688231149    -0.015706877384717
    -0.968816661134565    -0.015957763955752    -0.828212385957759
   1  26
    -0.834586024319294    -0.009195029273553    -0.911133495897821
    -0.001247374984244     0.065296888247685    -0.026647561474188
    -0.913667389069743    -0.015498779494813    -0.804481838134303
   1  27
     0.064644187284877     0.001662206381551     0.011879246983284
     0.010629232544611    -0.841777927060587     0.916300542495208
     0.001995251609584     0.912593815837018    -0.808586438025709
   1  28
    -0.002361646378805    -0.006718043002523     0.005125643922747
    -0.006161061342442    -0.006473105638520     0.005024981457408
     0.009550144032302     0.006869315398596    -0.008127220972444
   1  29
    -0.845602536715090     0.003289968661187     0.920896904432092
    -0.002956946232960     0.061896623194447     0.009351856038841
     0.919371054021484    -0.000890639465231    -0.813868014957118
   1  30
     0.056588331787163    -0.006361335283100    -0.021035619842326
    -0.007868302597502    -0.838772875868933    -0.902167177167510
    -0.011295416629501    -0.902189199437617    -0.806605025943336
   2   1
    -0.648690952141438    -0.769479631380921    -0.010835126737118
    -0.659413295774108    -0.660187437695664    -0.010604163170190
    -0.010815059500179    -0.015143637513626    -0.026455303704980
   2   2
     5.880903594959630    -0.088555857352732    -0.009329723531571
    -0.149473559798003     5.971728420206086     0.001512017901828
    -0.011632483949830     0.007739697649767     6.600775123804225
   2   3
    -0.648782365683260    -0.661585802714383    -0.010757270928374
    -0.767544178432446    -0.660314407219031    -0.014779170614096
    -0.010871487301219    -0.010948520255167    -0.026425005219729
   2   4
    -0.028326487806920    -0.059185924420549     0.006690216504135
    -0.039895658252632    -0.026106272614604     0.018737961032012
     0.016280861764292     0.009301979373378    -0.031976152411021
   2   5
    -0.028267770438945    -0.042024843151593     0.016187427413684
    -0.057077700569992    -0.026146961844572     0.009519285776616
     0.006700592743228     0.018546553382565    -0.031964667553936
   2   6
    -0.015441972797048     0.010560036200585    -0.006237132614488
     0.012592710317329     0.041415723757053    -0.022137869328545
    -0.006196074031502    -0.022398379469238     0.038226559756683
   2   7
    -0.653230899487573     0.829617110585209     0.011094524711623
     0.831659991552124    -0.654399568667917     0.004594147385713
     0.011267304971538     0.004233193471643     0.049769164456904
   2   8
     0.043910237473860    -0.000274564601016    -0.027707984821043
     0.001905685201708    -0.037963695289149    -0.005575035123597
    -0.027654255728154    -0.005814132453670     0.030907015918508
   2   9
     0.006080860441924    -0.002054910339630     0.001721378794801
     0.000069031681354     0.010778464619513     0.017242875886150
     0.001871237819426     0.017029009495632    -0.003514420927012
   2  10
     0.000569603371799    -0.008393205189394     0.020507180731411
    -0.006307346375996    -0.001777001514174    -0.001162476762473
     0.020608880844460    -0.001369254525966    -0.004076351986167
   2  11
    -0.007022553079098     0.023297485256630    -0.005731399268099
     0.015904771212058    -0.017450207016542     0.004147232600837
     0.004599505925304     0.022631169353968    -0.013367061485850
   2  12
    -0.036355655802209     0.013738804104963    -0.001980606488442
     0.031515465750382    -0.019210352999255     0.003800333538128
    -0.007845632702703    -0.001371632244318    -0.020141568037985
   2  13
    -0.010424484329251     0.029923484664977     0.000796947568682
     0.018741567414392    -0.035329426941975    -0.008161633150494
    -0.006015365044303    -0.025220189879033    -0.021479402674641
   2  14
    -0.035544203868518     0.015512282836867     0.011943414882263
     0.032538873939683    -0.023979683651305     0.004130627649811
     0.010344589183604    -0.000801186378035    -0.025140527179326
   2  15
    -0.002086738930373     0.006496313438094    -0.007757881191132
     0.001571515307612    -0.014531009612959     0.000330799440436
    -0.005147156574507     0.008216350114649    -0.006338882932160
   2  16
    -0.676021979951799     0.726107079630259     0.000964257670725
     0.735039434354559    -0.673342620649608     0.002971226708677
     0.003194316031014     0.001365522953557     0.045985974778576
   2  17
    -0.049084254310287     0.042214823693842    -0.001432539478361
     0.030208249519723    -0.005488116694160    -0.005764751110929
    -0.000174404186455    -0.002799093539046     0.030042961977758
   2  18
    -0.008120788869862     0.001181502657703     0.023713537983711
    -0.001446219484779    -0.007003275536707    -0.016432635257403
     0.009932873848047    -0.008574766680037    -0.007398769433445
   2  19
    -0.003223506234571     0.005102452232309    -0.018502792978331
     0.000742144858821    -0.002158905291017     0.020327362484373
    -0.005548455002714     0.004610452332364    -0.007293318067206
   2  20
     0.029877764627699    -0.008985876702407    -0.005927339995290
     0.011777928649633    -0.033627344971343    -0.004754830638358
    -0.005970995374920     0.000084583584324     0.017083257181790
   2  21
    -0.862204398972291    -0.027351511435324    -0.934857570465009
     0.000608806876739     0.096303688231149    -0.015706877384716
    -0.968816661134565    -0.015957763955752    -0.828212385957759
   2  22
     0.085968092277310     0.000054886624679    -0.007693277487636
    -0.027292656843998    -0.875304501634312    -0.936563116780365
    -0.011895344412605    -0.964909401973565    -0.837936016999960
   2  23
    -0.868490640542121    -0.015132570396597     0.949033289440742
    -0.001204522211176     0.093568474339198    -0.001233461805009
     0.974850358603259     0.004189736851735    -0.833730798698575
   2  24
     0.002157183685022    -0.003291768015087    -0.000845339021298
    -0.003345514165905     0.000169034029270     0.000063963449818
     0.006739017195866    -0.000425613681882    -0.005040315836000
   2  25
     0.093170046416566    -0.000165712597829     0.001212608081868
    -0.004270988204369    -0.879811151976689     0.953637384744120
     0.006241818347517     0.976900061607195    -0.840631320254027
   2  26
     0.056588331787163    -0.006361335283100    -0.021035619842326
    -0.007868302597502    -0.838772875868932    -0.902167177167511
    -0.011295416629501    -0.902189199437617    -0.806605025943336
   2  27
    -0.834586024319294    -0.009195029273553    -0.911133495897821
    -0.001247374984244     0.065296888247685    -0.026647561474188
    -0.913667389069743    -0.015498779494813    -0.804481838134303
   2  28
     0.064644187284877     0.001662206381551     0.011879246983284
     0.010629232544611    -0.841777927060587     0.916300542495209
     0.001995251609584     0.912593815837018    -0.808586438025709
   2  29
    -0.002361646378805    -0.006718043002523     0.005125643922747
    -0.006161061342442    -0.006473105638520     0.005024981457408
     0.009550144032302     0.006869315398596    -0.008127220972444
   2  30
    -0.845602536715090     0.003289968661187     0.920896904432092
    -0.002956946232960     0.061896623194447     0.009351856038841
     0.919371054021485    -0.000890639465231    -0.813868014957118
   3   1
    -0.028267770438945    -0.042024843151593     0.016187427413684
    -0.057077700569992    -0.026146961844572     0.009519285776616
     0.006700592743228     0.018546553382565    -0.031964667553936
   3   2
    -0.648690952141438    -0.769479631380921    -0.010835126737118
    -0.659413295774108    -0.660187437695664    -0.010604163170190
    -0.010815059500179    -0.015143637513626    -0.026455303704980
   3   3
     5.880903594959630    -0.088555857352732    -0.009329723531571
    -0.149473559798003     5.971728420206086     0.001512017901828
    -0.011632483949830     0.007739697649767     6.600775123804225
   3   4
    -0.648782365683260    -0.661585802714383    -0.010757270928374
    -0.767544178432446    -0.660314407219031    -0.014779170614096
    -0.010871487301219    -0.010948520255167    -0.026425005219729
   3   5
    -0.028326487806920    -0.059185924420549     0.006690216504135
    -0.039895658252632    -0.026106272614604     0.018737961032012
     0.016280861764292     0.009301979373378    -0.031976152411021
   3   6
     0.000569603371799    -0.008393205189394     0.020507180731411
    -0.006307346375996    -0.001777001514174    -0.001162476762473
     0.020608880844460    -0.001369254525966    -0.004076351986167
   3   7
    -0.015441972797048     0.010560036200585    -0.006237132614488
     0.012592710317329     0.041415723757053    -0.022137869328545
    -0.006196074031502    -0.022398379469238     0.038226559756683
   3   8
    -0.653230899487573     0.829617110585209     0.011094524711623
     0.831659991552124    -0.654399568667917     0.004594147385713
     0.011267304971538     0.004233193471643     0.049769164456904
   3   9
     0.043910237473860    -0.000274564601016    -0.027707984821043
     0.001905685201708    -0.037963695289149    -0.005575035123597
    -0.027654255728154    -0.005814132453670     0.030907015918508
   3  10
     0.006080860441924    -0.002054910339630     0.001721378794801
     0.000069031681354     0.010778464619513     0.017242875886150
     0.001871237819426     0.017029009495632    -0.003514420927012
   3  11
    -0.002086738930373     0.006496313438094    -0.007757881191132
     0.001571515307612    -0.014531009612959     0.000330799440436
    -0.005147156574507     0.008216350114649    -0.006338882932160
   3  12
    -0.007022553079098     0.023297485256630    -0.005731399268099
     0.015904771212058    -0.017450207016542     0.004147232600837
     0.004599505925304     0.022631169353968    -0.013367061485850
   3  13
    -0.036355655802209     0.013738804104963    -0.001980606488442
     0.031515465750382    -0.019210352999255     0.003800333538128
    -0.007845632702703    -0.001371632244318    -0.020141568037985
   3  14
    -0.010424484329251     0.029923484664977     0.000796947568682
     0.018741567414392    -0.035329426941975    -0.008161633150494
    -0.006015365044303    -0.025220189879033    -0.021479402674641
   3  15
    -0.035544203868518     0.015512282836867     0.011943414882263
     0.032538873939683    -0.023979683651305     0.004130627649811
     0.010344589183604    -0.000801186378035    -0.025140527179326
   3  16
     0.029877764627699    -0.008985876702407    -0.005927339995290
     0.011777928649633    -0.033627344971343    -0.004754830638358
    -0.005970995374920     0.000084583584324     0.017083257181790
   3  17
    -0.676021979951799     0.726107079630259     0.000964257670725
     0.735039434354559    -0.673342620649608     0.002971226708677
     0.003194316031014     0.001365522953557     0.045985974778576
   3  18
    -0.049084254310287     0.042214823693842    -0.001432539478361
     0.030208249519723    -0.005488116694160    -0.005764751110929
    -0.000174404186455    -0.002799093539046     0.030042961977758
   3  19
    -0.008120788869862     0.001181502657703     0.023713537983711
    -0.001446219484779    -0.007003275536707    -0.016432635257403
     0.009932873848047    -0.008574766680037    -0.007398769433445
   3  20
    -0.003223506234571     0.005102452232309    -0.018502792978331
     0.000742144858821    -0.002158905291017     0.020327362484373
    -0.005548455002714     0.004610452332364    -0.007293318067206
   3  21
     0.093170046416566    -0.000165712597829     0.001212608081868
    -0.004270988204369    -0.879811151976689     0.953637384744120
     0.006241818347517     0.976900061607195    -0.840631320254027
   3  22
    -0.862204398972291    -0.027351511435324    -0.934857570465009
     0.000608806876739     0.096303688231149    -0.015706877384716
    -0.968816661134565    -0.015957763955752    -0.828212385957759
   3  23
     0.085968092277310     0.000054886624679    -0.007693277487636
    -0.027292656843998    -0.875304501634312    -0.936563116780365
    -0.011895344412605    -0.964909401973565    -0.837936016999960
   3  24
    -0.868490640542121    -0.015132570396597     0.949033289440742
    -0.001204522211176     0.093568474339198    -0.001233461805009
     0.974850358603259     0.004189736851735    -0.833730798698575
   3  25
     0.002157183685022    -0.003291768015087    -0.000845339021298
    -0.003345514165905     0.000169034029270     0.000063963449818
     0.006739017195866    -0.000425613681882    -0.005040315836000
   3  26
    -0.845602536715090     0.003289968661187     0.920896904432092
    -0.002956946232960     0.061896623194447     0.009351856038841
     0.919371054021485    -0.000890639465231    -0.813868014957118
   3  27
     0.056588331787163    -0.006361335283100    -0.021035619842326
    -0.007868302597502    -0.838772875868932    -0.902167177167511
    -0.011295416629501    -0.902189199437617    -0.806605025943336
   3  28
    -0.834586024319294    -0.009195029273553    -0.911133495897821
    -0.001247374984244     0.065296888247685    -0.026647561474188
    -0.913667389069743    -0.015498779494813    -0.804481838134303
   3  29
     0.064644187284877     0.001662206381551     0.011879246983284
     0.010629232544611    -0.841777927060587     0.916300542495209
     0.001995251609584     0.912593815837018    -0.808586438025709
   3  30
    -0.002361646378805    -0.006718043002523     0.005125643922747
    -0.006161061342442    -0.006473105638520     0.005024981457408
     0.009550144032302     0.006869315398596    -0.008127220972444
   4   1
    -0.028326487806920    -0.059185924420549     0.006690216504135
    -0.039895658252632    -0.026106272614604     0.018737961032012
     0.016280861764292     0.009301979373378    -0.031976152411021
   4   2
    -0.028267770438945    -0.042024843151593     0.016187427413684
    -0.057077700569992    -0.026146961844572     0.009519285776616
     0.006700592743228     0.018546553382565    -0.031964667553936
   4   3
    -0.648690952141438    -0.769479631380921    -0.010835126737118
    -0.659413295774108    -0.660187437695664    -0.010604163170190
    -0.010815059500179    -0.015143637513626    -0.026455303704980
   4   4
     5.880903594959630    -0.088555857352732    -0.009329723531571
    -0.149473559798003     5.971728420206086     0.001512017901828
    -0.011632483949830     0.007739697649767     6.600775123804225
   4   5
    -0.648782365683260    -0.661585802714383    -0.010757270928374
    -0.767544178432446    -0.660314407219031    -0.014779170614096
    -0.010871487301219    -0.010948520255167    -0.026425005219729
   4   6
     0.006080860441924    -0.002054910339630     0.001721378794801
     0.000069031681354     0.010778464619513     0.017242875886150
     0.001871237819426     0.017029009495632    -0.003514420927012
   4   7
     0.000569603371799    -0.008393205189394     0.020507180731411
    -0.006307346375996    -0.001777001514174    -0.001162476762473
     0.020608880844460    -0.001369254525966    -0.004076351986167
   4   8
    -0.015441972797048     0.010560036200585    -0.006237132614488
     0.012592710317329     0.041415723757053    -0.022137869328545
    -0.006196074031502    -0.022398379469238     0.038226559756683
   4   9
    -0.653230899487573     0.829617110585209     0.011094524711623
     0.831659991552124    -0.654399568667917     0.004594147385713
     0.011267304971538     0.004233193471643     0.049769164456904
   4  10
     0.043910237473860    -0.000274564601016    -0.027707984821043
     0.001905685201708    -0.037963695289149    -0.005575035123597
    -0.027654255728154    -0.005814132453670     0.030907015918508
   4  11
    -0.035544203868518     0.015512282836867     0.011943414882263
     0.032538873939683    -0.023979683651305     0.004130627649811
     0.010344589183604    -0.000801186378035    -0.025140527179326
   4  12
    -0.002086738930373     0.006496313438094    -0.007757881191132
     0.001571515307612    -0.014531009612959     0.000330799440436
    -0.005147156574507     0.008216350114649    -0.006338882932160
   4  13
    -0.007022553079098     0.023297485256630    -0.005731399268099
     0.015904771212058    -0.017450207016542     0.004147232600837
     0.004599505925304     0.022631169353968    -0.013367061485850
   4  14
    -0.036355655802209     0.013738804104963    -0.001980606488442
     0.031515465750382    -0.019210352999255     0.003800333538128
    -0.007845632702703    -0.001371632244318    -0.020141568037985
   4  15
    -0.010424484329251     0.029923484664977     0.000796947568682
     0.018741567414392    -0.035329426941975    -0.008161633150494
    -0.006015365044303    -0.025220189879033    -0.021479402674641
   4  16
    -0.003223506234571     0.005102452232309    -0.018502792978331
     0.000742144858821    -0.002158905291017     0.020327362484373
    -0.005548455002714     0.004610452332364    -0.007293318067206
   4  17
     0.029877764627699    -0.008985876702407    -0.005927339995290
     0.011777928649633    -0.033627344971343    -0.004754830638358
    -0.005970995374920     0.000084583584324     0.017083257181790
   4  18
    -0.676021979951799     0.726107079630259     0.000964257670725
     0.735039434354559    -0.673342620649608     0.002971226708677
     0.003194316031014     0.001365522953557     0.045985974778576
   4  19
    -0.049084254310287     0.042214823693842    -0.001432539478361
     0.030208249519723    -0.005488116694160    -0.005764751110929
    -0.000174404186455    -0.002799093539046     0.030042961977758
   4  20
    -0.008120788869862     0.001181502657703     0.023713537983711
    -0.001446219484779    -0.007003275536707    -0.016432635257403
     0.009932873848047    -0.008574766680037    -0.007398769433445
   4  21
     0.002157183685022    -0.003291768015087    -0.000845339021298
    -0.003345514165905     0.000169034029270     0.000063963449818
     0.006739017195866    -0.000425613681882    -0.005040315836000
   4  22
     0.093170046416566    -0.000165712597829     0.001212608081868
    -0.004270988204369    -0.879811151976689     0.953637384744120
     0.006241818347517     0.976900061607195    -0.840631320254027
   4  23
    -0.862204398972291    -0.027351511435324    -0.934857570465009
     0.000608806876739     0.096303688231149    -0.015706877384716
    -0.968816661134565    -0.015957763955752    -0.828212385957759
   4  24
     0.085968092277310     0.000054886624679    -0.007693277487636
    -0.027292656843998    -0.875304501634312    -0.936563116780365
    -0.011895344412605    -0.964909401973565    -0.837936016999960
   4  25
    -0.868490640542121    -0.015132570396597     0.949033289440742
    -0.001204522211176     0.093568474339198    -0.001233461805009
     0.974850358603259     0.004189736851735    -0.833730798698575
   4  26
    -0.002361646378805    -0.006718043002523     0.005125643922747
    -0.006161061342442    -0.006473105638520     0.005024981457408
     0.009550144032302     0.006869315398596    -0.008127220972444
   4  27
    -0.845602536715090     0.003289968661187     0.920896904432092
    -0.002956946232960     0.061896623194447     0.009351856038841
     0.919371054021485    -0.000890639465231    -0.813868014957118
   4  28
     0.056588331787163    -0.006361335283100    -0.021035619842326
    -0.007868302597502    -0.838772875868932    -0.902167177167511
    -0.011295416629501    -0.902189199437617    -0.806605025943336
   4  29
    -0.834586024319294    -0.009195029273553    -0.911133495897821
    -0.001247374984244     0.065296888247685    -0.026647561474188
    -0.913667389069743    -0.015498779494813    -0.804481838134303
   4  30
     0.064644187284877     0.001662206381551     0.011879246983284
     0.010629232544611    -0.841777927060587     0.916300542495209
     0.001995251609584     0.912593815837018    -0.808586438025709
   5   1
    -0.648782365683260    -0.661585802714383    -0.010757270928374
    -0.767544178432446    -0.660314407219031    -0.014779170614096
    -0.010871487301219    -0.010948520255167    -0.026425005219729
   5   2
    -0.028326487806920    -0.059185924420549     0.006690216504135
    -0.039895658252632    -0.026106272614604     0.018737961032012
     0.016280861764292     0.009301979373378    -0.031976152411021
   5   3
    -0.028267770438945    -0.042024843151593     0.016187427413684
    -0.057077700569992    -0.026146961844572     0.009519285776616
     0.006700592743228     0.018546553382565    -0.031964667553936
   5   4
    -0.648690952141438    -0.769479631380921    -0.010835126737118
    -0.659413295774108    -0.660187437695664    -0.010604163170190
    -0.010815059500179    -0.015143637513626    -0.026455303704980
   5   5
     5.880903594959630    -0.088555857352732    -0.009329723531571
    -0.149473559798003     5.971728420206086     0.001512017901828
    -0.011632483949830     0.007739697649767     6.600775123804225
   5   6
     0.043910237473860    -0.000274564601016    -0.027707984821043
     0.001905685201708    -0.037963695289149    -0.005575035123597
    -0.027654255728154    -0.005814132453670     0.030907015918508
   5   7
     0.006080860441924    -0.002054910339630     0.001721378794801
     0.000069031681354     0.010778464619513     0.017242875886150
     0.001871237819426     0.017029009495632    -0.003514420927012
   5   8
     0.000569603371799    -0.008393205189394     0.020507180731411
    -0.006307346375996    -0.001777001514174    -0.001162476762473
     0.020608880844460    -0.001369254525966    -0.004076351986167
   5   9
    -0.015441972797048     0.010560036200585    -0.006237132614488
     0.012592710317329     0.041415723757053    -0.022137869328545
    -0.006196074031502    -0.022398379469238     0.038226559756683
   5  10
    -0.653230899487573     0.829617110585209     0.011094524711623
     0.831659991552124    -0.654399568667917     0.004594147385713
     0.011267304971538     0.004233193471643     0.049769164456904
   5  11
    -0.010424484329251     0.029923484664977     0.000796947568682
     0.018741567414392    -0.035329426941975    -0.008161633150494
    -0.006015365044303    -0.025220189879033    -0.021479402674641
   5  12
    -0.035544203868518     0.015512282836867     0.011943414882263
     0.032538873939683    -0.023979683651305     0.004130627649811
     0.010344589183604    -0.000801186378035    -0.025140527179326
   5  13
    -0.002086738930373     0.006496313438094    -0.007757881191132
     0.001571515307612    -0.014531009612959     0.000330799440436
    -0.005147156574507     0.008216350114649    -0.006338882932160
   5  14
    -0.007022553079098     0.023297485256630    -0.005731399268099
     0.015904771212058    -0.017450207016542     0.004147232600837
     0.004599505925304     0.022631169353968    -0.013367061485850
   5  15
    -0.036355655802209     0.013738804104963    -0.001980606488442
     0.031515465750382    -0.019210352999255     0.003800333538128
    -0.007845632702703    -0.001371632244318    -0.020141568037985
   5  16
    -0.008120788869862     0.001181502657703     0.023713537983711
    -0.001446219484779    -0.007003275536707    -0.016432635257403
     0.009932873848047    -0.008574766680037    -0.007398769433445
   5  17
    -0.003223506234571     0.005102452232309    -0.018502792978331
     0.000742144858821    -0.002158905291017     0.020327362484373
    -0.005548455002714     0.004610452332364    -0.007293318067206
   5  18
     0.029877764627699    -0.008985876702407    -0.005927339995290
     0.011777928649633    -0.033627344971343    -0.004754830638358
    -0.005970995374920     0.000084583584324     0.017083257181790
   5  19
    -0.676021979951799     0.726107079630259     0.000964257670725
     0.735039434354559    -0.673342620649608     0.002971226708677
     0.003194316031014     0.001365522953557     0.045985974778576
   5  20
    -0.049084254310287     0.042214823693842    -0.001432539478361
     0.030208249519723    -0.005488116694160    -0.005764751110929
    -0.000174404186455    -0.002799093539046     0.030042961977758
   5  21
    -0.868490640542121    -0.015132570396597     0.949033289440742
    -0.001204522211176     0.093568474339198    -0.001233461805009
     0.974850358603259     0.004189736851735    -0.833730798698575
   5  22
     0.002157183685022    -0.003291768015087    -0.000845339021298
    -0.003345514165905     0.000169034029270     0.000063963449818
     0.006739017195866    -0.000425613681882    -0.005040315836000
   5  23
     0.093170046416566    -0.000165712597829     0.001212608081868
    -0.004270988204369    -0.879811151976689     0.953637384744120