30
Lattice="-4.094478602339691 -4.095886570081563 -4.018026141912947 -2.044614590962448 -2.0459200240802 8.031272820163451 -8.182392962334118 4.090474655892891 -0.0014117280345911" Properties=Z:I:1:pos:R:3:vasp_force:R:3 uuid=b63b469d-8020-423c-864f-225b64b5eee5 vasp_virial="-0.051742750659777244 -0.1257747831143268 -0.005013356402554037 -0.1257747831143268 -0.24685741733430336 -0.254430986522835 -0.005013356402554037 -0.254430986522835 0.018315126154054197" vasp_energy=-107.87910277 pbc="T T T"
      46      -4.10715159      -2.04782825      -2.01508525       0.03513600       0.03770500       0.03592600 
      46      -4.09924306      -2.04039889       6.02284376      -0.00725000      -0.00297200      -0.00223100 
      46      -6.14700730      -4.08874682       2.00577351       0.00092000       0.00346000      -0.00171800 
      46      -4.10029294      -2.04120819       2.00672940       0.00012100       0.00336500      -0.00142500 
      46      -2.05357858       0.00633044       2.00768529      -0.00621600      -0.00476900      -0.00247800 
      46      -6.13030260      -0.00939892      -2.00990106       0.00024600      -0.00352700       0.00165100 
      46      -6.12820283      -0.00778031       6.02232765      -0.00071300      -0.00441700       0.00212000 
      46      -8.17596708      -2.05612825       2.00525740      -0.00125200      -0.00324300       0.00230000 
      46      -6.12925272      -0.00858961       2.00621329      -0.00052100      -0.00326800       0.00292800 
      46      -8.17701696      -2.05693755      -2.01085696      -0.00099600      -0.00395900       0.00231200 
      47      -8.15421195      -0.03266004      -0.00248655       0.00130000      -0.00157600      -0.00017200 
      47      -6.10749759       2.01487859      -0.00153066       0.00162600      -0.00178900      -0.00001700 
      47     -10.19987642      -2.07938937       4.01267191       0.00183300      -0.00109000       0.00040600 
      47      -8.15316206      -0.03185074       4.01362780       0.00196000      -0.00197200       0.00046100 
      47     -10.20092630      -2.08019868      -0.00344245       0.00176700      -0.00168200       0.00045700 
      47     -10.22827601      -0.00262105       6.02140218       0.00004500       0.00017500      -0.00001400 
      47     -12.27604026      -2.05096899       2.00433194      -0.00045200       0.00008200       0.00006600 
      47     -10.22932590      -0.00343036       2.00528783      -0.00010900      -0.00027100      -0.00018000 
      47      -8.18261154       2.04410827       2.00624372       0.00020600      -0.00017700      -0.00041100 
      47     -10.23037578      -0.00423966      -2.01082653       0.00008900       0.00012600       0.00034900 
      47      -6.16876190      -6.11221425       4.01351724      -0.00115000      -0.00921000      -0.01085300 
      47      -4.12204755      -4.06467562       4.01447313      -0.00121400       0.00206500      -0.00030600 
      47      -2.07533319      -2.01713698       4.01542902      -0.00205400       0.00175500      -0.00063800 
      47      -4.12309743      -4.06548492      -0.00164123      -0.00084800       0.00249500       0.00090100 
      47      -2.07638307      -2.01794629      -0.00068533      -0.01259300       0.00184300      -0.01036600 
      47      -8.18432036      -4.09580330       4.01309490      -0.01012000       0.00025500      -0.01037900 
      47      -6.13760600      -2.04826467       4.01405080       0.00004700       0.00053500       0.00083300 
      47      -4.09089164      -0.00072603       4.01500669      -0.00006000      -0.00035100      -0.00013100 
      47      -6.13865588      -2.04907397      -0.00206356       0.00031800       0.00044200       0.00031700 
      47      -4.09194152      -0.00153534      -0.00110767      -0.00006400      -0.01003100      -0.00970600 
30
Lattice="-4.094478602339691 -4.095886570081563 -4.018026141912947 -2.044614590962448 -2.0459200240802 8.031272820163451 -8.182392962334118 4.090474655892891 -0.0014117280345911" Properties=Z:I:1:pos:R:3:vasp_force:R:3 uuid=5c251210-7688-409f-8f27-e4ada687306a vasp_virial="-0.0512987285160837 -0.12633217261385699 -0.004799218063751477 -0.12633217261385699 -0.24972624125561413 -0.25682429736827544 -0.004799218063751477 -0.25682429736827544 0.017858507637489914" vasp_energy=-107.87906905 pbc="T T T"
      46      -4.10134283      -2.04201750      -2.00938496       0.00069800       0.00329300      -0.00143200 
      46      -4.09924306      -2.04039889       6.02284376       0.00083800       0.00422800      -0.00147500 
      46      -6.14700730      -4.08874682       2.00577351       0.00145900       0.00387200      -0.00175900 
      46      -4.10029294      -2.04120819       2.00672940       0.00062400       0.00376700      -0.00145900 
      46      -2.05357858       0.00633044       2.00768529       0.00128600       0.00381000      -0.00184100 
      46      -8.17252198      -2.05292220       6.01196333      -0.01465100      -0.01796800       0.06331600 
      46      -6.12820283      -0.00778031       6.02232765       0.00226600      -0.00088300       0.00196800 
      46      -8.17596708      -2.05612825       2.00525740      -0.00100200      -0.00307900       0.00186600 
      46      -6.12925272      -0.00858961       2.00621329      -0.00026200      -0.00293900       0.00248000 
      46      -8.17701696      -2.05693755      -2.01085696       0.00235200      -0.00112100       0.00206400 
      47      -8.15421195      -0.03266004      -0.00248655       0.01240800      -0.00170400      -0.00996600 
      47      -6.10749759       2.01487859      -0.00153066       0.00139800      -0.00853600      -0.00541400 
      47     -10.19987642      -2.07938937       4.01267191      -0.00531600      -0.00139200      -0.00509600 
      47      -8.15316206      -0.03185074       4.01362780       0.00185800       0.00955000      -0.00985300 
      47     -10.20092630      -2.08019868      -0.00344245       0.00178600      -0.00187000       0.00050600 
      47     -10.22827601      -0.00262105       6.02140218       0.00008200      -0.00017000       0.00029200 
      47     -12.27604026      -2.05096899       2.00433194      -0.00058200       0.00023700       0.00026100 
      47     -10.22932590      -0.00343036       2.00528783      -0.00008200      -0.00030600      -0.00021000 
      47      -8.18261154       2.04410827       2.00624372       0.00014100      -0.00002400      -0.00052700 
      47     -10.23037578      -0.00423966      -2.01082653      -0.00018600      -0.00034200       0.00037500 
      47      -6.16876190      -6.11221425       4.01351724      -0.00149900       0.00134100      -0.00054600 
      47      -4.12204755      -4.06467562       4.01447313      -0.00173200       0.00155500      -0.00125900 
      47      -2.07533319      -2.01713698       4.01542902      -0.00203400       0.00194600      -0.00071700 
      47      -4.12309743      -4.06548492      -0.00164123      -0.00141600       0.00208700       0.00012900 
      47      -2.07638307      -2.01794629      -0.00068533      -0.00214800       0.00154500      -0.00060500 
      47      -8.18432036      -4.09580330       4.01309490      -0.00005000      -0.00658600      -0.00555000 
      47      -6.13760600      -2.04826467       4.01405080       0.01054800       0.00002500      -0.01003400 
      47      -4.09089164      -0.00072603       4.01500669       0.00007700      -0.00024900      -0.00023300 
      47      -6.13865588      -2.04907397      -0.00206356      -0.00012800       0.01040300      -0.01006300 
      47      -4.09194152      -0.00153534      -0.00110767      -0.00673300      -0.00048600      -0.00521800 
30
Lattice="-4.094478602339691 -4.095886570081563 -4.018026141912947 -2.044614590962448 -2.0459200240802 8.031272820163451 -8.182392962334118 4.090474655892891 -0.0014117280345911" Properties=Z:I:1:pos:R:3:vasp_force:R:3 uuid=270ea92e-beaf-44a2-8813-f709577bfd3c vasp_virial="-0.049484850822697324 -0.1244490148696815 -0.004912585419588126 -0.1244490148696815 -0.2513385769830687 -0.25495058690375305 -0.004912585419588126 -0.25495058690375305 0.01977630540705989" vasp_energy=-107.87912193 pbc="T T T"
      46      -4.10134283      -2.04201750      -2.00938496      -0.00826800       0.01370300      -0.00181400 
      46      -4.09924306      -2.04039889       6.02284376       0.00070400       0.00445400      -0.00189200 
      46      -6.14700730      -4.08874682       2.00577351       0.00129600       0.00377200      -0.00151800 
      46      -4.10029294      -2.04120819       2.00672940       0.00068400       0.00353900      -0.00147400 
      46      -2.05357858       0.00633044       2.00768529       0.00205300       0.00391700      -0.00246300 
      46      -6.13924719      -0.00492741      -2.00990261       0.05197100      -0.03067900       0.00203400 
      46      -6.12820283      -0.00778031       6.02232765      -0.00362800      -0.00811000       0.00206700 
      46      -8.17596708      -2.05612825       2.00525740      -0.00125200      -0.00370300       0.00229400 
      46      -6.12925272      -0.00858961       2.00621329      -0.00063500      -0.00366800       0.00279200 
      46      -8.17701696      -2.05693755      -2.01085696      -0.00327300      -0.00718200       0.00220400 
      47      -8.15421195      -0.03266004      -0.00248655      -0.00644600      -0.00216500       0.00854800 
      47      -6.10749759       2.01487859      -0.00153066       0.00256800       0.00225900       0.00427000 
      47     -10.19987642      -2.07938937       4.01267191      -0.00598000      -0.00178700      -0.00800100 
      47      -8.15316206      -0.03185074       4.01362780       0.00291000       0.00192400      -0.00376200 
      47     -10.20092630      -2.08019868      -0.00344245       0.00177000      -0.00192700       0.00051300 
      47     -10.22827601      -0.00262105       6.02140218      -0.00936600       0.00969000      -0.00016700 
      47     -12.27604026      -2.05096899       2.00433194      -0.00019500       0.00017800       0.00001000 
      47     -10.22932590      -0.00343036       2.00528783      -0.00005000      -0.00031300      -0.00042600 
      47      -8.18261154       2.04410827       2.00624372      -0.00002500       0.00006000      -0.00018500 
      47     -10.23037578      -0.00423966      -2.01082653      -0.00078200       0.00014500       0.00005700 
      47      -6.16876190      -6.11221425       4.01351724      -0.00158400       0.00196700      -0.00034900 
      47      -4.12204755      -4.06467562       4.01447313      -0.00211800       0.00173900      -0.00113200 
      47      -2.07533319      -2.01713698       4.01542902      -0.00217400       0.00200900      -0.00069700 
      47      -4.12309743      -4.06548492      -0.00164123      -0.00137900       0.00208900       0.00006800 
      47      -2.07638307      -2.01794629      -0.00068533      -0.00270000       0.00175300      -0.00027200 
      47      -8.18432036      -4.09580330       4.01309490       0.00072100       0.00360900       0.00365600 
      47      -6.13760600      -2.04826467       4.01405080      -0.00779900      -0.00005300       0.00806600 
      47      -4.09089164      -0.00072603       4.01500669      -0.00001000      -0.00040100      -0.00014100 
      47      -6.13865588      -2.04907397      -0.00206356       0.00055200       0.00377900      -0.00442200 
      47      -4.09194152      -0.00153534      -0.00110767      -0.00756500      -0.00059600      -0.00786200 
30
Lattice="-4.094478602339691 -4.095886570081563 -4.018026141912947 -2.044614590962448 -2.0459200240802 8.031272820163451 -8.182392962334118 4.090474655892891 -0.0014117280345911" Properties=Z:I:1:pos:R:3:vasp_force:R:3 uuid=f7652800-260b-494c-b781-c862b86e6992 vasp_virial="-0.05096492463500913 -0.12895221817097063 -0.005120425571955316 -0.12895221817097063 -0.24931371004409741 -0.25517417252220864 -0.005120425571955316 -0.25517417252220864 0.016350091986218944" vasp_energy=-107.87913087 pbc="T T T"
      46      -4.10134283      -2.04201750      -2.00938496       0.01083300      -0.00693000      -0.00195100 
      46      -4.09924306      -2.04039889       6.02284376       0.00107200       0.00469500      -0.00195600 
      46      -6.14700730      -4.08874682       2.00577351       0.00120800       0.00396600      -0.00187200 
      46      -4.10029294      -2.04120819       2.00672940       0.00055400       0.00373200      -0.00132800 
      46      -2.05357858       0.00633044       2.00768529       0.00126300       0.00364200      -0.00199500 
      46      -6.12135801      -0.01387042      -2.00989952      -0.05393300       0.02259200       0.00153400 
      46      -6.12820283      -0.00778031       6.02232765       0.00205800      -0.00018900       0.00219000 
      46      -8.17596708      -2.05612825       2.00525740      -0.00127900      -0.00312600       0.00211200 
      46      -6.12925272      -0.00858961       2.00621329      -0.00050700      -0.00278300       0.00286200 
      46      -8.17701696      -2.05693755      -2.01085696       0.00144700      -0.00119300       0.00228800 
      47      -8.15421195      -0.03266004      -0.00248655       0.00905400      -0.00099800      -0.00841500 
      47      -6.10749759       2.01487859      -0.00153066       0.00076400      -0.00550800      -0.00394300 
      47     -10.19987642      -2.07938937       4.01267191       0.00942900      -0.00037700       0.00860600 
      47      -8.15316206      -0.03185074       4.01362780       0.00118300      -0.00588600       0.00477200 
      47     -10.20092630      -2.08019868      -0.00344245       0.00168000      -0.00180800       0.00055100 
      47     -10.22827601      -0.00262105       6.02140218       0.00928100      -0.00926400      -0.00013600 
      47     -12.27604026      -2.05096899       2.00433194      -0.00064600       0.00009700       0.00009600 
      47     -10.22932590      -0.00343036       2.00528783      -0.00000700      -0.00036400       0.00011000 
      47      -8.18261154       2.04410827       2.00624372       0.00008500       0.00003600      -0.00073300 
      47     -10.23037578      -0.00423966      -2.01082653       0.00034500      -0.00060000       0.00005400 
      47      -6.16876190      -6.11221425       4.01351724      -0.00125100       0.00117600      -0.00041300 
      47      -4.12204755      -4.06467562       4.01447313      -0.00120800       0.00138000      -0.00104000 
      47      -2.07533319      -2.01713698       4.01542902      -0.00192800       0.00149500      -0.00053400 
      47      -4.12309743      -4.06548492      -0.00164123      -0.00135000       0.00190200       0.00023200 
      47      -2.07638307      -2.01794629      -0.00068533      -0.00179500       0.00132000      -0.00042600 
      47      -8.18432036      -4.09580330       4.01309490      -0.00038300      -0.00371600      -0.00400900 
      47      -6.13760600      -2.04826467       4.01405080       0.00727500       0.00050000      -0.00829700 
      47      -4.09089164      -0.00072603       4.01500669      -0.00004500      -0.00028000      -0.00016500 
      47      -6.13865588      -2.04907397      -0.00206356      -0.00053200      -0.00372300       0.00358500 
      47      -4.09194152      -0.00153534      -0.00110767       0.00733300       0.00021100       0.00822300 
30
Lattice="-4.094478602339691 -4.095886570081563 -4.018026141912947 -2.044614590962448 -2.0459200240802 8.031272820163451 -8.182392962334118 4.090474655892891 -0.0014117280345911" Properties=Z:I:1:pos:R:3:vasp_force:R:3 uuid=879b8671-3488-44be-a6f6-b94f06fc3ab1 vasp_virial="-0.05220881645599458 -0.1255858375212657 -0.006950048731430125 -0.1255858375212657 -0.24838157845166273 -0.2526580470412786 -0.006950048731430125 -0.2526580470412786 0.017099576172027904" vasp_energy=-107.87912197 pbc="T T T"
      46      -4.10134283      -2.04201750      -2.00938496       0.00085800       0.00376100      -0.00203500 
      46      -4.09924306      -2.04039889       6.02284376       0.00091900       0.00459100      -0.00182400 
      46      -6.14700730      -4.08874682       2.00577351       0.00119600       0.00380500      -0.00169900 
      46      -4.10029294      -2.04120819       2.00672940       0.00053100       0.00371400      -0.00147200 
      46      -2.05357858       0.00633044       2.00768529       0.00173400       0.00363600      -0.00252300 
      46      -6.13030260      -0.00939892      -2.00990106      -0.00062100      -0.00404100       0.00223000 
      46      -6.12820283      -0.00778031       6.02232765      -0.00082800      -0.00419300       0.00215400 
      46      -8.17596708      -2.05612825       2.00525740      -0.00075300      -0.00309100       0.00311600 
      46      -6.12925272      -0.00858961       2.00621329      -0.01088900      -0.00277200      -0.00738100 
      46      -8.17701696      -2.05693755      -2.01085696      -0.00046400      -0.01495500      -0.00841000 
      47      -8.16002071      -0.03847080      -0.00818685       0.03679000       0.03340900       0.03455600 
      47      -6.10749759       2.01487859      -0.00153066      -0.00729800      -0.01057600       0.00066500 
      47     -10.19987642      -2.07938937       4.01267191       0.00194500      -0.00090700       0.00017300 
      47      -8.15316206      -0.03185074       4.01362780       0.00212500      -0.00183800       0.00026500 
      47     -10.20092630      -2.08019868      -0.00344245      -0.00759900      -0.01112800       0.00110800 
      47     -10.22827601      -0.00262105       6.02140218       0.00080100       0.00039000       0.00058800 
      47     -12.27604026      -2.05096899       2.00433194      -0.00068600      -0.00010700       0.00022700 
      47     -10.22932590      -0.00343036       2.00528783       0.00038100       0.00029400       0.00053900 
      47      -8.18261154       2.04410827       2.00624372       0.00055300      -0.00918700      -0.00925500 
      47     -10.23037578      -0.00423966      -2.01082653      -0.00989300       0.00041600      -0.00914000 
      47      -6.16876190      -6.11221425       4.01351724      -0.00138100       0.00130400      -0.00029700 
      47      -4.12204755      -4.06467562       4.01447313      -0.00183000       0.00171200      -0.00117100 
      47      -2.07533319      -2.01713698       4.01542902      -0.00193700       0.00164000      -0.00066400 
      47      -4.12309743      -4.06548492      -0.00164123      -0.00156200       0.00214400       0.00026100 
      47      -2.07638307      -2.01794629      -0.00068533      -0.00184300       0.00196700       0.00027300 
      47      -8.18432036      -4.09580330       4.01309490       0.00030100      -0.00003500      -0.00014300 
      47      -6.13760600      -2.04826467       4.01405080      -0.00042500       0.00032700      -0.00003000 
      47      -4.09089164      -0.00072603       4.01500669      -0.00036400      -0.00069600      -0.00038700 
      47      -6.13865588      -2.04907397      -0.00206356       0.00079600       0.00089400       0.00046000 
      47      -4.09194152      -0.00153534      -0.00110767      -0.00055500      -0.00047600      -0.00018500 
30
Lattice="-4.094478602339691 -4.095886570081563 -4.018026141912947 -2.044614590962448 -2.0459200240802 8.031272820163451 -8.182392962334118 4.090474655892891 -0.0014117280345911" Properties=Z:I:1:pos:R:3:vasp_force:R:3 uuid=46dd0849-dbc7-45fc-81aa-70fa96fed5d7 vasp_virial="-0.0483165372389363 -0.12566141575849013 -0.0029097621331406597 -0.12566141575849013 -0.2523399886262924 -0.2573407486559757 -0.0029097621331406597 -0.2573407486559757 0.017354652722660364" vasp_energy=-107.87912657 pbc="T T T"
      46      -4.10134283      -2.04201750      -2.00938496       0.00117400       0.00357700      -0.00172400 
      46      -4.09924306      -2.04039889       6.02284376       0.00082400       0.00456300      -0.00201600 
      46      -6.14700730      -4.08874682       2.00577351       0.00126100       0.00395200      -0.00169000 
      46      -4.10029294      -2.04120819       2.00672940       0.00065700       0.00357000      -0.00132200 
      46      -2.05357858       0.00633044       2.00768529       0.00152600       0.00393000      -0.00193800 
      46      -6.13030260      -0.00939892      -2.00990106      -0.00115000      -0.00510100       0.00034000 
      46      -6.12820283      -0.00778031       6.02232765      -0.00078400      -0.00415900       0.00211100 
      46      -8.17596708      -2.05612825       2.00525740      -0.00182300      -0.00368700       0.00125200 
      46      -6.12925272      -0.00858961       2.00621329       0.01013100      -0.00372500       0.01347800 
      46      -8.17701696      -2.05693755      -2.01085696      -0.00135300       0.00621000       0.01247400 
      47      -8.14840319      -0.02684929       0.00321374      -0.03280800      -0.03584400      -0.03381600 
      47      -6.10749759       2.01487859      -0.00153066       0.01089500       0.00766400      -0.00044100 
      47     -10.19987642      -2.07938937       4.01267191       0.00166400      -0.00120100       0.00072200 
      47      -8.15316206      -0.03185074       4.01362780       0.00187400      -0.00214700       0.00080000 
      47     -10.20092630      -2.08019868      -0.00344245       0.01064500       0.00704700       0.00001700 
      47     -10.22827601      -0.00262105       6.02140218      -0.00047400      -0.00049500      -0.00085700 
      47     -12.27604026      -2.05096899       2.00433194      -0.00020400       0.00040300      -0.00011100 
      47     -10.22932590      -0.00343036       2.00528783      -0.00045400      -0.00095600      -0.00088100 
      47      -8.18261154       2.04410827       2.00624372      -0.00061100       0.00964800       0.00868800 
      47     -10.23037578      -0.00423966      -2.01082653       0.00903600      -0.00078400       0.00890800 
      47      -6.16876190      -6.11221425       4.01351724      -0.00151000       0.00185100      -0.00046600 
      47      -4.12204755      -4.06467562       4.01447313      -0.00155200       0.00142300      -0.00099400 
      47      -2.07533319      -2.01713698       4.01542902      -0.00221900       0.00187900      -0.00056100 
      47      -4.12309743      -4.06548492      -0.00164123      -0.00121600       0.00186500       0.00004700 
      47      -2.07638307      -2.01794629      -0.00068533      -0.00269100       0.00110600      -0.00096800 
      47      -8.18432036      -4.09580330       4.01309490       0.00002200      -0.00002400      -0.00015700 
      47      -6.13760600      -2.04826467       4.01405080      -0.00035900       0.00009500       0.00008500 
      47      -4.09089164      -0.00072603       4.01500669       0.00026200       0.00003100       0.00009400 
      47      -6.13865588      -2.04907397      -0.00206356      -0.00083100      -0.00075600      -0.00134200 
      47      -4.09194152      -0.00153534      -0.00110767       0.00006500       0.00006500       0.00026600 
30
Lattice="-4.094478602339691 -4.095886570081563 -4.018026141912947 -2.044614590962448 -2.0459200240802 8.031272820163451 -8.182392962334118 4.090474655892891 -0.0014117280345911" Properties=Z:I:1:pos:R:3:vasp_force:R:3 uuid=6ac63d6f-38e8-49e2-ae26-83a15f2d4c8f vasp_virial="-0.05059018254210464 -0.1259983687327824 -0.002276794396386036 -0.1259983687327824 -0.24929796457800898 -0.2591199863239676 -0.002276794396386036 -0.2591199863239676 0.017055488866980318" vasp_energy=-107.87912346 pbc="T T T"
      46      -4.10134283      -2.04201750      -2.00938496       0.00098800       0.00366600      -0.00172300 
      46      -4.09924306      -2.04039889       6.02284376       0.00096800       0.00454000      -0.00173900 
      46      -6.14700730      -4.08874682       2.00577351       0.00131800       0.00384800      -0.00163700 
      46      -4.10029294      -2.04120819       2.00672940       0.00043900       0.00362900      -0.00114800 
      46      -2.05357858       0.00633044       2.00768529       0.00167600       0.00382400      -0.00211100 
      46      -6.13030260      -0.00939892      -2.00990106      -0.01166400      -0.00433700       0.01124500 
      46      -6.12820283      -0.00778031       6.02232765      -0.00080100      -0.00417300       0.00218500 
      46      -8.17596708      -2.05612825       2.00525740      -0.00106200      -0.01474000       0.01266000 
      46      -6.12925272      -0.00858961       2.00621329       0.00615400      -0.00282500       0.00830300 
      46      -8.17701696      -2.05693755      -2.01085696      -0.00066200       0.00241700       0.00773500 
      47      -8.15660716      -0.03505679       0.00692188       0.01613600       0.01294800      -0.05647100 
      47      -6.10749759       2.01487859      -0.00153066      -0.00193000      -0.00525900      -0.00101300 
      47     -10.19987642      -2.07938937       4.01267191       0.00169600      -0.00111500       0.00120200 
      47      -8.15316206      -0.03185074       4.01362780       0.00196000      -0.00210200       0.00128900 
      47     -10.20092630      -2.08019868      -0.00344245      -0.00196500      -0.00546300      -0.00066000 
      47     -10.22827601      -0.00262105       6.02140218       0.00067100      -0.00977700       0.00843800 
      47     -12.27604026      -2.05096899       2.00433194      -0.00075600      -0.00013200       0.00023700 
      47     -10.22932590      -0.00343036       2.00528783      -0.01020400       0.00020600       0.00874500 
      47      -8.18261154       2.04410827       2.00624372       0.00020200       0.00626100       0.00435400 
      47     -10.23037578      -0.00423966      -2.01082653       0.00589100       0.00003300       0.00477800 
      47      -6.16876190      -6.11221425       4.01351724      -0.00139700       0.00153100      -0.00058300 
      47      -4.12204755      -4.06467562       4.01447313      -0.00148400       0.00134300      -0.00089400 
      47      -2.07533319      -2.01713698       4.01542902      -0.00230600       0.00196700      -0.00047000 
      47      -4.12309743      -4.06548492      -0.00164123      -0.00144600       0.00208300      -0.00003400 
      47      -2.07638307      -2.01794629      -0.00068533      -0.00206500       0.00173600      -0.00139500 
      47      -8.18432036      -4.09580330       4.01309490       0.00008800      -0.00029800       0.00026300 
      47      -6.13760600      -2.04826467       4.01405080      -0.00063700       0.00013200       0.00050100 
      47      -4.09089164      -0.00072603       4.01500669       0.00028500      -0.00040400      -0.00022300 
      47      -6.13865588      -2.04907397      -0.00206356       0.00026200       0.00033300      -0.00183300 
      47      -4.09194152      -0.00153534      -0.00110767      -0.00035600       0.00013100      -0.00000100 
30
Lattice="-4.094478602339691 -4.095886570081563 -4.018026141912947 -2.044614590962448 -2.0459200240802 8.031272820163451 -8.182392962334118 4.090474655892891 -0.0014117280345911" Properties=Z:I:1:pos:R:3:vasp_force:R:3 uuid=8a87791e-fd32-44d9-aa78-65fc94343923 vasp_virial="-0.04970528734793526 -0.12589129956338113 -0.009063090280496558 -0.12589129956338113 -0.250696161966661 -0.25245020688891145 -0.009063090280496558 -0.25245020688891145 0.017382994561619524" vasp_energy=-107.87911782 pbc="T T T"
      46      -4.10134283      -2.04201750      -2.00938496       0.00107000       0.00368900      -0.00203700 
      46      -4.09924306      -2.04039889       6.02284376       0.00079800       0.00463500      -0.00210100 
      46      -6.14700730      -4.08874682       2.00577351       0.00116500       0.00392600      -0.00175200 
      46      -4.10029294      -2.04120819       2.00672940       0.00077000       0.00367500      -0.00164600 
      46      -2.05357858       0.00633044       2.00768529       0.00160800       0.00376000      -0.00234900 
      46      -6.13030260      -0.00939892      -2.00990106       0.01044500      -0.00479900      -0.00911700 
      46      -6.12820283      -0.00778031       6.02232765      -0.00079900      -0.00414900       0.00207900 
      46      -8.17596708      -2.05612825       2.00525740      -0.00147700       0.00745000      -0.00785000 
      46      -6.12925272      -0.00858961       2.00621329      -0.00716000      -0.00357400      -0.00254700 
      46      -8.17701696      -2.05693755      -2.01085696      -0.00120900      -0.01087200      -0.00333100 
      47      -8.15181673      -0.03026330      -0.01189499      -0.01276200      -0.01599100       0.05722600 
      47      -6.10749759       2.01487859      -0.00153066       0.00522800       0.00205500       0.00133100 
      47     -10.19987642      -2.07938937       4.01267191       0.00192700      -0.00097300      -0.00030600 
      47      -8.15316206      -0.03185074       4.01362780       0.00206200      -0.00185400      -0.00022600 
      47     -10.20092630      -2.08019868      -0.00344245       0.00534300       0.00172400       0.00169000 
      47     -10.22827601      -0.00262105       6.02140218      -0.00035400       0.01013600      -0.00905900 
      47     -12.27604026      -2.05096899       2.00433194      -0.00011300       0.00044900      -0.00012200 
      47     -10.22932590      -0.00343036       2.00528783       0.00970600      -0.00081600      -0.00873700 
      47      -8.18261154       2.04410827       2.00624372      -0.00016200      -0.00599200      -0.00519900 
      47     -10.23037578      -0.00423966      -2.01082653      -0.00651600      -0.00045900      -0.00473300 
      47      -6.16876190      -6.11221425       4.01351724      -0.00147100       0.00164400      -0.00017600 