  32
   1   1
     6.550967454602376    -0.029100842108806    -0.001911902338180
     0.017341707784434     6.327025985115982    -0.016285455254138
    -0.011813910395342    -0.068269170016785     6.589400067218665
   1   2
     0.060857879204229     0.000598673268006    -0.000659146166760
    -0.000918287406359     0.076990082948799     0.000123304858086
    -0.000260954176666     0.001817624473324    -0.115971982419294
   1   3
    -0.011891490795069     0.020140946336795    -0.027207006001247
     0.018696337359126    -0.049254974423237    -0.018701979584061
    -0.026639184834023    -0.017206148766411    -0.010520541504725
   1   4
    -0.012388673410872     0.020831379722539     0.030860877335702
     0.019402065275897    -0.048554225568958     0.017249972344853
     0.030987309821399     0.019069307336739    -0.015726533102362
   1   5
    -0.068663878371082     0.017686535658221     0.000113612606890
    -0.017093310780531     0.043094092976860     0.000769201312257
     0.002597759623638     0.002234105159080     0.018356472778838
   1   6
    -0.068676689086357    -0.015612413436521     0.002276474977297
     0.016171876670338     0.043023464841867     0.000541521601537
     0.000419242067043     0.002427191942045     0.018383409296978
   1   7
    -0.009324674018920    -0.017893051192552     0.017493774702548
    -0.018475376007776    -0.047910877289022     0.030180182407683
    -0.018955130915252    -0.026325951054620    -0.010736993387443
   1   8
    -0.009560854094822    -0.016979269177223    -0.019524870062765
    -0.019377692757404    -0.047849822792814    -0.028096073282350
     0.017514404426522     0.031583517370914    -0.010712504253956
   1   9
    -0.749228887358538    -0.838029672893087     0.000669546886153
    -0.839690165126813    -0.746609289785912    -0.000767340954143
     0.000886600022325     0.000840144028801     0.041728001714978
   1  10
    -0.019190731752962     0.004274222394244     0.001116049731181
     0.002723372164721    -0.001434278608143    -0.000056456478977
     0.001519541746826     0.001493904671867    -0.028865534653405
   1  11
    -0.036600148947918     0.002492208123349     0.001582768919598
     0.000803209647909     0.004726243535544     0.006632151152100
     0.002225167571542     0.008381774200420    -0.004170754513679
   1  12
    -0.036226868510968     0.001626977927500    -0.003192957711868
     0.000221540265830     0.006100576435375    -0.006956541737470
    -0.003166326792344    -0.005275239687672    -0.003216683119333
   1  13
    -0.017282497316876    -0.004272764192051    -0.002716034268337
    -0.005672125093244    -0.011128732704822     0.000136784288008
    -0.002574263496145     0.001838979733621    -0.024412415742889
   1  14
    -0.753577251507478     0.840334653235902    -0.002358563097509
     0.838754445678657    -0.740810231338504     0.001289365907005
    -0.001762621623274     0.002775298480538     0.035824537402662
   1  15
     0.050514686703785    -0.002376629691511    -0.000487684726473
    -0.003814991241346    -0.753510892621275     0.839591689095167
     0.000005971368668     0.841137636975686    -0.769986677827244
   1  16
     0.049963146053273     0.001581618496502     0.002414092398068
     0.000088576640471    -0.760236348403752    -0.834965023269213
     0.002832369880545    -0.833032787814882    -0.766953028039027
   1  17
     0.015489314612694    -0.008616488753862     0.000536596023349
    -0.013064970211939    -0.049708025628716     0.000036362672386
     0.001067395289820     0.001327801810378     0.017018981426101
   1  18
     0.022956089704336     0.010051997343272    -0.000413014226642
     0.011471705191485    -0.013391961859323     0.001026118574587
    -0.000508598785639     0.002642082403511     0.002390482054201
   1  19
    -0.846517879380710    -0.005758197496504     0.948416393515265
    -0.006710259992747     0.101055944556969    -0.005885677878921
     0.947205279276696    -0.003361404930886    -0.847624212783045
   1  20
    -0.847282234888911    -0.006138511556152    -0.947221797744877
    -0.008343933283654     0.098849331982106     0.005257096322829
    -0.946083147724179     0.007985674994251    -0.848641808586025
   1  21
    -0.023674223286121    -0.029019673148217     0.000612091438809
    -0.033572276317641    -0.063919976043336    -0.000408549353685
     0.000768798492437     0.001309901297837     0.016430992581529
   1  22
    -0.026593326931347     0.032069708620153    -0.000192994924484
     0.033546040306159    -0.074860911786788     0.000141486837326
     0.000064339638075     0.002607746292370    -0.057193498100582
   1  23
    -0.848209594437346     0.008254484253593     0.946077570610544
     0.008114509501828     0.100250418318882     0.000206150508773
     0.946110880715226     0.002303663300792    -0.847554323022648
   1  24
    -0.846877338274260     0.007728518472348    -0.945065164687951
     0.006883651382570     0.100634336401457    -0.000002528251056
    -0.944957626901609     0.002961168684783    -0.847641717877883
   1  25
     0.116489844841730    -0.000078101962962     0.000777126437612
    -0.002020983899719    -0.863885375550456     0.974696139608836
     0.003177267513318     1.010539939924829    -0.859284853541674
   1  26
     0.115475907087388     0.000309196236655    -0.000473573365139
    -0.000366801219812    -0.864759681990494    -0.970464351912456
    -0.002131250086580    -1.004187547947197    -0.856519787559272
   1  27
     0.008712684222653     0.004491884389035    -0.001497688113278
    -0.016183717898840    -0.006056645019879     0.000581967241975
    -0.000921788543103     0.002273039035232    -0.011200969037321
   1  28
    -0.865570146838999     0.994827748185075    -0.000207473092987
     0.962299721140130    -0.867099568086312     0.001201760497376
    -0.000799254459580     0.002354630963571     0.105207970087007
   1  29
    -0.018180426119600     0.002059378336708     0.000369443751664
     0.000193727806398    -0.008557592388130     0.011421926518482
     0.020644586269456     0.003327194801733    -0.002983361567099
   1  30
    -0.017366140152344     0.001128444829928    -0.000820715432629
     0.000304253431160    -0.008499210408610    -0.009604870416886
    -0.018923943675455     0.000626723335039    -0.001160679343137
   1  31
    -0.862150458691605    -1.002982213817805     0.001045809415889
    -0.968262966160703    -0.870029697661779     0.000856211208733
     0.000514712678562     0.001807793779659     0.109862439843834
   1  32
     0.003606539164481     0.006371680573497    -0.000412760773777
     0.016552113744511    -0.003682259230864     0.000256018106542
     0.000956876004868     0.001992905145506    -0.013524494403556
   2   1
     0.060857879204229     0.000598673268006    -0.000659146166760
    -0.000918287406359     0.076990082948799     0.000123304858086
    -0.000260954176666     0.001817624473324    -0.115971982419294
   2   2
     6.550967454602376    -0.029100842108806    -0.001911902338179
     0.017341707784434     6.327025985115984    -0.016285455254138
    -0.011813910395342    -0.068269170016785     6.589400067218665
   2   3
    -0.012388673410872     0.020831379722539     0.030860877335702
     0.019402065275897    -0.048554225568958     0.017249972344853
     0.030987309821399     0.019069307336739    -0.015726533102362
   2   4
    -0.011891490795069     0.020140946336795    -0.027207006001247
     0.018696337359126    -0.049254974423237    -0.018701979584061
    -0.026639184834023    -0.017206148766411    -0.010520541504725
   2   5
    -0.068676689086357    -0.015612413436521     0.002276474977297
     0.016171876670338     0.043023464841867     0.000541521601537
     0.000419242067043     0.002427191942045     0.018383409296978
   2   6
    -0.068663878371082     0.017686535658221     0.000113612606890
    -0.017093310780531     0.043094092976860     0.000769201312257
     0.002597759623638     0.002234105159080     0.018356472778838
   2   7
    -0.009560854094822    -0.016979269177223    -0.019524870062765
    -0.019377692757404    -0.047849822792814    -0.028096073282350
     0.017514404426522     0.031583517370914    -0.010712504253956
   2   8
    -0.009324674018920    -0.017893051192552     0.017493774702548
    -0.018475376007776    -0.047910877289022     0.030180182407683
    -0.018955130915252    -0.026325951054620    -0.010736993387443
   2   9
    -0.019190731752962     0.004274222394244     0.001116049731180
     0.002723372164721    -0.001434278608143    -0.000056456478977
     0.001519541746826     0.001493904671867    -0.028865534653405
   2  10
    -0.749228887358538    -0.838029672893088     0.000669546886153
    -0.839690165126813    -0.746609289785913    -0.000767340954143
     0.000886600022326     0.000840144028801     0.041728001714978
   2  11
    -0.036226868510968     0.001626977927500    -0.003192957711868
     0.000221540265830     0.006100576435375    -0.006956541737470
    -0.003166326792344    -0.005275239687672    -0.003216683119333
   2  12
    -0.036600148947918     0.002492208123349     0.001582768919598
     0.000803209647909     0.004726243535544     0.006632151152100
     0.002225167571542     0.008381774200420    -0.004170754513679
   2  13
    -0.753577251507478     0.840334653235903    -0.002358563097509
     0.838754445678657    -0.740810231338504     0.001289365907005
    -0.001762621623274     0.002775298480538     0.035824537402662
   2  14
    -0.017282497316876    -0.004272764192051    -0.002716034268337
    -0.005672125093244    -0.011128732704822     0.000136784288008
    -0.002574263496145     0.001838979733621    -0.024412415742889
   2  15
     0.049963146053273     0.001581618496501     0.002414092398068
     0.000088576640471    -0.760236348403753    -0.834965023269213
     0.002832369880545    -0.833032787814882    -0.766953028039027
   2  16
     0.050514686703785    -0.002376629691511    -0.000487684726473
    -0.003814991241346    -0.753510892621275     0.839591689095168
     0.000005971368668     0.841137636975687    -0.769986677827244
   2  17
     0.022956089704336     0.010051997343272    -0.000413014226642
     0.011471705191485    -0.013391961859323     0.001026118574587
    -0.000508598785639     0.002642082403511     0.002390482054201
   2  18
     0.015489314612694    -0.008616488753862     0.000536596023349
    -0.013064970211939    -0.049708025628716     0.000036362672386
     0.001067395289820     0.001327801810378     0.017018981426101
   2  19
    -0.847282234888911    -0.006138511556152    -0.947221797744877
    -0.008343933283654     0.098849331982106     0.005257096322829
    -0.946083147724179     0.007985674994251    -0.848641808586025
   2  20
    -0.846517879380710    -0.005758197496504     0.948416393515265
    -0.006710259992747     0.101055944556969    -0.005885677878921
     0.947205279276696    -0.003361404930886    -0.847624212783045
   2  21
    -0.026593326931347     0.032069708620153    -0.000192994924484
     0.033546040306159    -0.074860911786788     0.000141486837326
     0.000064339638075     0.002607746292370    -0.057193498100582
   2  22
    -0.023674223286121    -0.029019673148217     0.000612091438809
    -0.033572276317641    -0.063919976043336    -0.000408549353685
     0.000768798492437     0.001309901297837     0.016430992581529
   2  23
    -0.846877338274260     0.007728518472348    -0.945065164687951
     0.006883651382570     0.100634336401457    -0.000002528251056
    -0.944957626901609     0.002961168684783    -0.847641717877883
   2  24
    -0.848209594437346     0.008254484253593     0.946077570610544
     0.008114509501828     0.100250418318882     0.000206150508773
     0.946110880715226     0.002303663300792    -0.847554323022648
   2  25
     0.115475907087388     0.000309196236655    -0.000473573365139
    -0.000366801219812    -0.864759681990494    -0.970464351912456
    -0.002131250086580    -1.004187547947198    -0.856519787559272
   2  26
     0.116489844841730    -0.000078101962962     0.000777126437612
    -0.002020983899719    -0.863885375550457     0.974696139608836
     0.003177267513318     1.010539939924830    -0.859284853541674
   2  27
    -0.865570146838999     0.994827748185075    -0.000207473092987
     0.962299721140130    -0.867099568086313     0.001201760497376
    -0.000799254459580     0.002354630963571     0.105207970087007
   2  28
     0.008712684222653     0.004491884389035    -0.001497688113278
    -0.016183717898841    -0.006056645019879     0.000581967241975
    -0.000921788543103     0.002273039035232    -0.011200969037321
   2  29
    -0.017366140152344     0.001128444829928    -0.000820715432629
     0.000304253431160    -0.008499210408610    -0.009604870416886
    -0.018923943675455     0.000626723335039    -0.001160679343137
   2  30
    -0.018180426119600     0.002059378336708     0.000369443751664
     0.000193727806398    -0.008557592388130     0.011421926518482
     0.020644586269456     0.003327194801733    -0.002983361567099
   2  31
     0.003606539164481     0.006371680573497    -0.000412760773777
     0.016552113744511    -0.003682259230864     0.000256018106542
     0.000956876004868     0.001992905145506    -0.013524494403556
   2  32
    -0.862150458691605    -1.002982213817806     0.001045809415889
    -0.968262966160703    -0.870029697661780     0.000856211208733
     0.000514712678562     0.001807793779659     0.109862439843834
   3   1
    -0.011891490795069     0.020140946336795    -0.027207006001247
     0.018696337359126    -0.049254974423237    -0.018701979584061
    -0.026639184834023    -0.017206148766411    -0.010520541504725
   3   2
    -0.012388673410872     0.020831379722539     0.030860877335702
     0.019402065275897    -0.048554225568958     0.017249972344853
     0.030987309821399     0.019069307336739    -0.015726533102362
   3   3
     6.550967454602376    -0.029100842108806    -0.001911902338179
     0.017341707784434     6.327025985115984    -0.016285455254138
    -0.011813910395342    -0.068269170016785     6.589400067218665
   3   4
     0.060857879204229     0.000598673268006    -0.000659146166760
    -0.000918287406359     0.076990082948799     0.000123304858086
    -0.000260954176666     0.001817624473324    -0.115971982419294
   3   5
    -0.009324674018920    -0.017893051192552     0.017493774702548
    -0.018475376007776    -0.047910877289022     0.030180182407683
    -0.018955130915252    -0.026325951054620    -0.010736993387443
   3   6
    -0.009560854094822    -0.016979269177223    -0.019524870062765
    -0.019377692757404    -0.047849822792814    -0.028096073282350
     0.017514404426522     0.031583517370914    -0.010712504253956
   3   7
    -0.068663878371082     0.017686535658221     0.000113612606890
    -0.017093310780531     0.043094092976860     0.000769201312257
     0.002597759623638     0.002234105159080     0.018356472778838
   3   8
    -0.068676689086357    -0.015612413436521     0.002276474977297
     0.016171876670338     0.043023464841867     0.000541521601537
     0.000419242067043     0.002427191942045     0.018383409296978
   3   9
    -0.036600148947918     0.002492208123349     0.001582768919598
     0.000803209647909     0.004726243535544     0.006632151152100
     0.002225167571542     0.008381774200420    -0.004170754513679
   3  10
    -0.036226868510968     0.001626977927500    -0.003192957711868
     0.000221540265830     0.006100576435375    -0.006956541737470
    -0.003166326792344    -0.005275239687672    -0.003216683119333
   3  11
    -0.749228887358538    -0.838029672893088     0.000669546886153
    -0.839690165126813    -0.746609289785913    -0.000767340954143
     0.000886600022326     0.000840144028801     0.041728001714978
   3  12
    -0.019190731752962     0.004274222394244     0.001116049731180
     0.002723372164721    -0.001434278608143    -0.000056456478977
     0.001519541746826     0.001493904671867    -0.028865534653405
   3  13
     0.050514686703785    -0.002376629691511    -0.000487684726473
    -0.003814991241346    -0.753510892621275     0.839591689095168
     0.000005971368668     0.841137636975687    -0.769986677827244
   3  14
     0.049963146053273     0.001581618496501     0.002414092398068
     0.000088576640471    -0.760236348403753    -0.834965023269213
     0.002832369880545    -0.833032787814882    -0.766953028039027
   3  15
    -0.017282497316876    -0.004272764192051    -0.002716034268337
    -0.005672125093244    -0.011128732704822     0.000136784288008
    -0.002574263496145     0.001838979733621    -0.024412415742889
   3  16
    -0.753577251507478     0.840334653235903    -0.002358563097509
     0.838754445678657    -0.740810231338504     0.001289365907005
    -0.001762621623274     0.002775298480538     0.035824537402662
   3  17
    -0.846517879380710    -0.005758197496504     0.948416393515265
    -0.006710259992747     0.101055944556969    -0.005885677878921
     0.947205279276696    -0.003361404930886    -0.847624212783045
   3  18
    -0.847282234888911    -0.006138511556152    -0.947221797744877
    -0.008343933283654     0.098849331982106     0.005257096322829
    -0.946083147724179     0.007985674994251    -0.848641808586025
   3  19
     0.015489314612694    -0.008616488753862     0.000536596023349
    -0.013064970211939    -0.049708025628716     0.000036362672386
     0.001067395289820     0.001327801810378     0.017018981426101
   3  20
     0.022956089704336     0.010051997343272    -0.000413014226642
     0.011471705191485    -0.013391961859323     0.001026118574587
    -0.000508598785639     0.002642082403511     0.002390482054201
   3  21
    -0.848209594437346     0.008254484253593     0.946077570610544
     0.008114509501828     0.100250418318882     0.000206150508773
     0.946110880715226     0.002303663300792    -0.847554323022648
   3  22
    -0.846877338274260     0.007728518472348    -0.945065164687951
     0.006883651382570     0.100634336401457    -0.000002528251056
    -0.944957626901609     0.002961168684783    -0.847641717877883
   3  23
    -0.023674223286121    -0.029019673148217     0.000612091438809
    -0.033572276317641    -0.063919976043336    -0.000408549353685
     0.000768798492437     0.001309901297837     0.016430992581529
   3  24
    -0.026593326931347     0.032069708620153    -0.000192994924484
     0.033546040306159    -0.074860911786788     0.000141486837326
     0.000064339638075     0.002607746292370    -0.057193498100582
   3  25
     0.008712684222653     0.004491884389035    -0.001497688113278
    -0.016183717898841    -0.006056645019879     0.000581967241975
    -0.000921788543103     0.002273039035232    -0.011200969037321
   3  26
    -0.865570146838999     0.994827748185075    -0.000207473092987
     0.962299721140130    -0.867099568086313     0.001201760497376
    -0.000799254459580     0.002354630963571     0.105207970087007
   3  27
     0.116489844841730    -0.000078101962962     0.000777126437612
    -0.002020983899719    -0.863885375550457     0.974696139608836
     0.003177267513318     1.010539939924830    -0.859284853541674
   3  28
     0.115475907087388     0.000309196236655    -0.000473573365139
    -0.000366801219812    -0.864759681990494    -0.970464351912456
    -0.002131250086580    -1.004187547947198    -0.856519787559272
   3  29
    -0.862150458691605    -1.002982213817806     0.001045809415889
    -0.968262966160703    -0.870029697661780     0.000856211208733
     0.000514712678562     0.001807793779659     0.109862439843834
   3  30
     0.003606539164481     0.006371680573497    -0.000412760773777
     0.016552113744511    -0.003682259230864     0.000256018106542
     0.000956876004868     0.001992905145506    -0.013524494403556
   3  31
    -0.018180426119600     0.002059378336708     0.000369443751664
     0.000193727806398    -0.008557592388130     0.011421926518482
     0.020644586269456     0.003327194801733    -0.002983361567099
   3  32
    -0.017366140152344     0.001128444829928    -0.000820715432629
     0.000304253431160    -0.008499210408610    -0.009604870416886
    -0.018923943675455     0.000626723335039    -0.001160679343137
   4   1
    -0.012388673410872     0.020831379722539     0.030860877335702
     0.019402065275897    -0.048554225568958     0.017249972344853
     0.030987309821399     0.019069307336739    -0.015726533102362
   4   2
    -0.011891490795069     0.020140946336795    -0.027207006001247
     0.018696337359126    -0.049254974423237    -0.018701979584061
    -0.026639184834023    -0.017206148766411    -0.010520541504725
   4   3
     0.060857879204229     0.000598673268006    -0.000659146166760
    -0.000918287406359     0.076990082948799     0.000123304858086
    -0.000260954176666     0.001817624473324    -0.115971982419294
   4   4
     6.550967454602376    -0.029100842108806    -0.001911902338179
     0.017341707784434     6.327025985115984    -0.016285455254138
    -0.011813910395342    -0.068269170016785     6.589400067218665
   4   5
    -0.009560854094822    -0.016979269177223    -0.019524870062765
    -0.019377692757404    -0.047849822792814    -0.028096073282350
     0.017514404426522     0.031583517370914    -0.010712504253956
   4   6
    -0.009324674018920    -0.017893051192552     0.017493774702548
    -0.018475376007776    -0.047910877289022     0.030180182407683
    -0.018955130915252    -0.026325951054620    -0.010736993387443
   4   7
    -0.068676689086357    -0.015612413436521     0.002276474977297
     0.016171876670338     0.043023464841867     0.000541521601537
     0.000419242067043     0.002427191942045     0.018383409296978
   4   8
    -0.068663878371082     0.017686535658221     0.000113612606890
    -0.017093310780531     0.043094092976860     0.000769201312257
     0.002597759623638     0.002234105159080     0.018356472778838
   4   9
    -0.036226868510968     0.001626977927500    -0.003192957711868
     0.000221540265830     0.006100576435375    -0.006956541737470
    -0.003166326792344    -0.005275239687672    -0.003216683119333
   4  10
    -0.036600148947918     0.002492208123349     0.001582768919598
     0.000803209647909     0.004726243535544     0.006632151152100
     0.002225167571542     0.008381774200420    -0.004170754513679
   4  11
    -0.019190731752962     0.004274222394244     0.001116049731180
     0.002723372164721    -0.001434278608143    -0.000056456478977
     0.001519541746826     0.001493904671867    -0.028865534653405
   4  12
    -0.749228887358538    -0.838029672893088     0.000669546886153
    -0.839690165126813    -0.746609289785913    -0.000767340954143
     0.000886600022326     0.000840144028801     0.041728001714978
   4  13
     0.049963146053273     0.001581618496501     0.002414092398068
     0.000088576640471    -0.760236348403753    -0.834965023269213
     0.002832369880545    -0.833032787814882    -0.766953028039027
   4  14
     0.050514686703785    -0.002376629691511    -0.000487684726473
    -0.003814991241346    -0.753510892621275     0.839591689095168
     0.000005971368668     0.841137636975687    -0.769986677827244
   4  15
    -0.753577251507478     0.840334653235903    -0.002358563097509
     0.838754445678657    -0.740810231338504     0.001289365907005
    -0.001762621623274     0.002775298480538     0.035824537402662
   4  16
    -0.017282497316876    -0.004272764192051    -0.002716034268337
    -0.005672125093244    -0.011128732704822     0.000136784288008
    -0.002574263496145     0.001838979733621    -0.024412415742889
   4  17
    -0.847282234888911    -0.006138511556152    -0.947221797744877
    -0.008343933283654     0.098849331982106     0.005257096322829
    -0.946083147724179     0.007985674994251    -0.848641808586025
   4  18
    -0.846517879380710    -0.005758197496504     0.948416393515265
    -0.006710259992747     0.101055944556969    -0.005885677878921
     0.947205279276696    -0.003361404930886    -0.847624212783045
   4  19
     0.022956089704336     0.010051997343272    -0.000413014226642
     0.011471705191485    -0.013391961859323     0.001026118574587
    -0.000508598785639     0.002642082403511     0.002390482054201
   4  20
     0.015489314612694    -0.008616488753862     0.000536596023349
    -0.013064970211939    -0.049708025628716     0.000036362672386
     0.001067395289820     0.001327801810378     0.017018981426101
   4  21
    -0.846877338274260     0.007728518472348    -0.945065164687951
     0.006883651382570     0.100634336401457    -0.000002528251056
    -0.944957626901609     0.002961168684783    -0.847641717877883
   4  22
    -0.848209594437346     0.008254484253593     0.946077570610544
     0.008114509501828     0.100250418318882     0.000206150508773
     0.946110880715226     0.002303663300792    -0.847554323022648
   4  23
    -0.026593326931347     0.032069708620153    -0.000192994924484
     0.033546040306159    -0.074860911786788     0.000141486837326
     0.000064339638075     0.002607746292370    -0.057193498100582
   4  24
    -0.023674223286121    -0.029019673148217     0.000612091438809
    -0.033572276317641    -0.063919976043336    -0.000408549353685
     0.000768798492437     0.001309901297837     0.016430992581529
   4  25
    -0.865570146838999     0.994827748185075    -0.000207473092987
     0.962299721140130    -0.867099568086313     0.001201760497376
    -0.000799254459580     0.002354630963571     0.105207970087007
   4  26
     0.008712684222653     0.004491884389035    -0.001497688113278
    -0.016183717898841    -0.006056645019879     0.000581967241975
    -0.000921788543103     0.002273039035232    -0.011200969037321
   4  27
     0.115475907087388     0.000309196236655    -0.000473573365139
    -0.000366801219812    -0.864759681990494    -0.970464351912456
    -0.002131250086580    -1.004187547947198    -0.856519787559272
   4  28
     0.116489844841730    -0.000078101962962     0.000777126437612
    -0.002020983899719    -0.863885375550457     0.974696139608836
     0.003177267513318     1.010539939924830    -0.859284853541674
   4  29
     0.003606539164481     0.006371680573497    -0.000412760773777
     0.016552113744511    -0.003682259230864     0.000256018106542
     0.000956876004868     0.001992905145506    -0.013524494403556
   4  30
    -0.862150458691605    -1.002982213817806     0.001045809415889
    -0.968262966160703    -0.870029697661780     0.000856211208733
     0.000514712678562     0.001807793779659     0.109862439843834
   4  31
    -0.017366140152344     0.001128444829928    -0.000820715432629
     0.000304253431160    -0.008499210408610    -0.009604870416886
    -0.018923943675455     0.000626723335039    -0.001160679343137
   4  32
    -0.018180426119600     0.002059378336708     0.000369443751664
     0.000193727806398    -0.008557592388130     0.011421926518482
     0.020644586269456     0.003327194801733    -0.002983361567099
   5   1
    -0.068676689086357    -0.015612413436521     0.002276474977297
     0.016171876670338     0.043023464841867     0.000541521601537
     0.000419242067043     0.002427191942045     0.018383409296978
   5   2
    -0.068663878371082     0.017686535658221     0.000113612606890
    -0.017093310780531     0.043094092976860     0.000769201312257
     0.002597759623638     0.002234105159080     0.018356472778838
   5   3
    -0.009560854094822    -0.016979269177223    -0.019524870062765
    -0.019377692757404    -0.047849822792814    -0.028096073282350
     0.017514404426522     0.031583517370914    -0.010712504253956
   5   4
    -0.009324674018920    -0.017893051192552     0.017493774702548
    -0.018475376007776    -0.047910877289022     0.030180182407683
    -0.018955130915252    -0.026325951054620    -0.010736993387443
   5   5
     6.550967454602376    -0.029100842108806    -0.001911902338179
     0.017341707784434     6.327025985115984    -0.016285455254138
    -0.011813910395342    -0.068269170016785     6.589400067218665
   5   6
     0.060857879204229     0.000598673268006    -0.000659146166760
    -0.000918287406359     0.076990082948799     0.000123304858086
    -0.000260954176666     0.001817624473324    -0.115971982419294
   5   7
    -0.011891490795069     0.020140946336795    -0.027207006001247
     0.018696337359126    -0.049254974423237    -0.018701979584061
    -0.026639184834023    -0.017206148766411    -0.010520541504725
   5   8
    -0.012388673410872     0.020831379722539     0.030860877335702
     0.019402065275897    -0.048554225568958     0.017249972344853
     0.030987309821399     0.019069307336739    -0.015726533102362
   5   9
    -0.753577251507478     0.840334653235903    -0.002358563097509
     0.838754445678657    -0.740810231338504     0.001289365907005
    -0.001762621623274     0.002775298480538     0.035824537402662
   5  10
    -0.017282497316876    -0.004272764192051    -0.002716034268337
    -0.005672125093244    -0.011128732704822     0.000136784288008
    -0.002574263496145     0.001838979733621    -0.024412415742889
   5  11
     0.049963146053273     0.001581618496501     0.002414092398068
     0.000088576640471    -0.760236348403753    -0.834965023269213
     0.002832369880545    -0.833032787814882    -0.766953028039027
   5  12
     0.050514686703785    -0.002376629691511    -0.000487684726473
    -0.003814991241346    -0.753510892621275     0.839591689095168
     0.000005971368668     0.841137636975687    -0.769986677827244
   5  13
    -0.749228887358538    -0.838029672893088     0.000669546886153
    -0.839690165126813    -0.746609289785913    -0.000767340954143
     0.000886600022326     0.000840144028801     0.041728001714978
   5  14
    -0.019190731752962     0.004274222394244     0.001116049731180
     0.002723372164721    -0.001434278608143    -0.000056456478977
     0.001519541746826     0.001493904671867    -0.028865534653405
   5  15
    -0.036600148947918     0.002492208123349     0.001582768919598
     0.000803209647909     0.004726243535544     0.006632151152100