  32
   1   1
     5.579251010712526    -0.120774262386436    -0.249892733368070
    -0.136798546823019     5.631492319223939     0.203845931854861
    -0.225213191137036     0.232099444784663     6.217293700878334
   1   2
    -0.606690624925259    -0.609836870430516    -0.002881902470086
    -0.609223061125851    -0.599852260227029    -0.018469763603990
    -0.003677551952498    -0.019404361831983    -0.025911803562418
   1   3
    -0.018346639586841    -0.056435576286569    -0.022984865959706
    -0.055953210233951    -0.035017223271946     0.031619546609360
    -0.023847582766851     0.030695664491606     0.005962170105652
   1   4
    -0.034394623758668     0.013301865071435    -0.000768156688522
     0.013791237811103    -0.007322862432856    -0.016911712813495
    -0.001561148717751    -0.017814776983325    -0.010431592741868
   1   5
    -0.015963470930128     0.057942290248075     0.045188124993166
     0.058497430615455    -0.043940896432895    -0.005589612887762
     0.044390856443112    -0.006508420771303    -0.017548368118923
   1   6
    -0.034401856730630     0.013298220450971    -0.000766523259086
     0.013799393378123    -0.007315334221983    -0.016914417349279
    -0.001563749708418    -0.017814957114734    -0.010427040934430
   1   7
    -0.018353288354883    -0.056435959638489    -0.022985410260508
    -0.055945909932402    -0.035011489957917     0.031623373891879
    -0.023847807568470     0.030699935640542     0.005961053816653
   1   8
    -0.606701998530323    -0.609823717355572    -0.002891906127822
    -0.609214409332304    -0.599868892769235    -0.018486450605455
    -0.003691096144570    -0.019429054985630    -0.025898548450059
   1   9
    -0.843499555262887    -0.018439220829367     0.900810637675917
    -0.009459829946676     0.088711947504840    -0.002299535514502
     0.889691687596844     0.004500358174632    -0.806223759910794
   1  10
     0.100447274342462    -0.011725060014487    -0.002778966685085
    -0.014408266219032    -0.838641364511519    -0.904832516847421
    -0.014169922620875    -0.891017795270331    -0.809600363418386
   1  11
    -0.036803843576262     0.003894012631360    -0.006869661952521
     0.007075974454384    -0.012446048778044    -0.008395174584288
    -0.005949950011751    -0.016559867381340    -0.014050918712755
   1  12
     0.006514875314579     0.009244474404032    -0.001055187071278
     0.012869871306865    -0.057524526560849     0.019500449903414
     0.001515211558055     0.018857322927617    -0.001255881431562
   1  13
    -0.644674701307346     0.731170565306953     0.001305823608600
     0.735614432796341    -0.639616519048260     0.003433053841448
     0.015891237577296    -0.011109801417139     0.082184790591946
   1  14
    -0.042902876561169     0.003758335233241    -0.027265448048031
    -0.014076049718628     0.009979340114333    -0.018145790950030
    -0.022251500814287    -0.008759644329108     0.002268314675700
   1  15
     0.022606396587187    -0.002375690647908     0.001161525079492
     0.003625503039495     0.011414945208548     0.003458997062473
    -0.001932931788708    -0.008504565085246    -0.015621099878886
   1  16
    -0.017335051701599    -0.007279084893884     0.033636142355641
    -0.008842682417027    -0.019746678402321     0.016653992836892
     0.026671126459562     0.016204334651875    -0.021286658073442
   1  17
     0.061884056399821     0.001006624582631    -0.008064531207613
    -0.006285918455501    -0.763167555168393     0.804589824342246
     0.010816214549614     0.809491887188445    -0.742498150256812
   1  18
    -0.749895900531240    -0.011839881989534    -0.777984249316498
    -0.010202167054786     0.047474405072137     0.007294894758816
    -0.790773494133921    -0.006251603352236    -0.737641478763444
   1  19
    -0.749893408054032    -0.011812775084745    -0.778026859644470
    -0.010225889799471     0.047465510982855     0.007276467626202
    -0.790696431099460    -0.006241985130744    -0.737617515636203
   1  20
     0.061878061412280     0.001004808735702    -0.008065559530118
    -0.006290418692619    -0.763114281760928     0.804577451986168
     0.010827582126651     0.809415777472242    -0.742465809683769
   1  21
     0.018768769702290    -0.010810902877030    -0.010943982062400
    -0.009041542567601     0.023892757343508     0.002506234567493
    -0.006388554739524     0.002715684249574     0.007651704676491
   1  22
     0.002669806050103    -0.002191110205433     0.027035127207803
     0.003667359622642    -0.001936578547611    -0.019024763620060
     0.016368119899922    -0.015815709281831    -0.013383046405350
   1  23
     0.002691078388309    -0.002180685259158     0.027045513305022
     0.003630273972328    -0.001963120398505    -0.019036722864456
     0.016357519830268    -0.015819931243565    -0.013386122386256
   1  24
     0.018757960877064    -0.010829105744991    -0.010933604755366
    -0.009018044714451     0.023912757767994     0.002509076259410
    -0.006381264569292     0.002731240682251     0.007642077745141
   1  25
     0.100467513783325    -0.011715065758184    -0.002777492850175
    -0.014389524838582    -0.838692251481911    -0.904895854811159
    -0.014180879910094    -0.891027868609246    -0.809639281090187
   1  26
    -0.843502383837286    -0.018453410896004     0.900839180357106
    -0.009457073007181     0.088723935547804    -0.002344018993366
     0.889675724267446     0.004498815894149    -0.806250108969615
   1  27
    -0.017336941461455    -0.007272760272455     0.033633418743510
    -0.008824789107417    -0.019770721662041     0.016638020002396
     0.026663972452647     0.016207887020275    -0.021297051280196
   1  28
     0.022609859902519    -0.002388401326085     0.001156064933915
     0.003623962462815     0.011440651788925     0.003462051475663
    -0.001938341493908    -0.008499283310598    -0.015633226065002
   1  29
    -0.042899932654120     0.003774010946425    -0.027263894829967
    -0.014102825476761     0.009964055393891    -0.018153469867508
    -0.022255577956162    -0.008764336922936     0.002252889051550
   1  30
    -0.644666438148542     0.731095268850242     0.001324511308541
     0.735634264904142    -0.639564644093835     0.003427313750757
     0.015898819138777    -0.011087984269226     0.082170692560203
   1  31
     0.006518942663051     0.009246661836892    -0.001060428135564
     0.012850804487239    -0.057522946383633     0.019497304768481
     0.001511177500139     0.018855091694108    -0.001263310129415
   1  32
    -0.036803873776757     0.003883660725038    -0.006876529783017
     0.007081114432855    -0.012437250306050    -0.008413600050728
    -0.005959109241747    -0.016543929143866    -0.014058500515998
   2   1
    -0.606701998530323    -0.609823717355572    -0.002891906127822
    -0.609214409332304    -0.599868892769235    -0.018486450605455
    -0.003691096144570    -0.019429054985630    -0.025898548450059
   2   2
     5.579251010712525    -0.120774262386437    -0.249892733368070
    -0.136798546823019     5.631492319223939     0.203845931854861
    -0.225213191137036     0.232099444784663     6.217293700878334
   2   3
    -0.606690624925259    -0.609836870430516    -0.002881902470086
    -0.609223061125851    -0.599852260227029    -0.018469763603990
    -0.003677551952498    -0.019404361831983    -0.025911803562418
   2   4
    -0.018346639586841    -0.056435576286569    -0.022984865959706
    -0.055953210233951    -0.035017223271946     0.031619546609360
    -0.023847582766851     0.030695664491606     0.005962170105652
   2   5
    -0.034394623758668     0.013301865071435    -0.000768156688522
     0.013791237811103    -0.007322862432856    -0.016911712813495
    -0.001561148717751    -0.017814776983325    -0.010431592741868
   2   6
    -0.015963470930128     0.057942290248075     0.045188124993166
     0.058497430615455    -0.043940896432896    -0.005589612887762
     0.044390856443112    -0.006508420771303    -0.017548368118923
   2   7
    -0.034401856730630     0.013298220450971    -0.000766523259086
     0.013799393378123    -0.007315334221983    -0.016914417349279
    -0.001563749708418    -0.017814957114734    -0.010427040934430
   2   8
    -0.018353288354883    -0.056435959638489    -0.022985410260508
    -0.055945909932402    -0.035011489957917     0.031623373891879
    -0.023847807568469     0.030699935640542     0.005961053816653
   2   9
    -0.017335051701599    -0.007279084893884     0.033636142355641
    -0.008842682417027    -0.019746678402321     0.016653992836892
     0.026671126459562     0.016204334651875    -0.021286658073442
   2  10
    -0.843499555262886    -0.018439220829367     0.900810637675917
    -0.009459829946676     0.088711947504840    -0.002299535514502
     0.889691687596844     0.004500358174632    -0.806223759910795
   2  11
     0.100447274342462    -0.011725060014487    -0.002778966685085
    -0.014408266219032    -0.838641364511519    -0.904832516847421
    -0.014169922620875    -0.891017795270331    -0.809600363418386
   2  12
    -0.036803843576262     0.003894012631360    -0.006869661952521
     0.007075974454384    -0.012446048778044    -0.008395174584288
    -0.005949950011751    -0.016559867381340    -0.014050918712755
   2  13
     0.006514875314579     0.009244474404032    -0.001055187071278
     0.012869871306865    -0.057524526560849     0.019500449903414
     0.001515211558055     0.018857322927617    -0.001255881431562
   2  14
    -0.644674701307346     0.731170565306953     0.001305823608600
     0.735614432796341    -0.639616519048260     0.003433053841448
     0.015891237577297    -0.011109801417139     0.082184790591946
   2  15
    -0.042902876561169     0.003758335233241    -0.027265448048031
    -0.014076049718628     0.009979340114333    -0.018145790950030
    -0.022251500814287    -0.008759644329108     0.002268314675700
   2  16
     0.022606396587187    -0.002375690647908     0.001161525079492
     0.003625503039495     0.011414945208548     0.003458997062473
    -0.001932931788708    -0.008504565085246    -0.015621099878886
   2  17
     0.018757960877064    -0.010829105744991    -0.010933604755366
    -0.009018044714451     0.023912757767994     0.002509076259410
    -0.006381264569292     0.002731240682251     0.007642077745141
   2  18
     0.061884056399821     0.001006624582631    -0.008064531207613
    -0.006285918455501    -0.763167555168393     0.804589824342246
     0.010816214549614     0.809491887188445    -0.742498150256812
   2  19
    -0.749895900531240    -0.011839881989534    -0.777984249316498
    -0.010202167054786     0.047474405072137     0.007294894758816
    -0.790773494133920    -0.006251603352236    -0.737641478763444
   2  20
    -0.749893408054032    -0.011812775084745    -0.778026859644470
    -0.010225889799471     0.047465510982855     0.007276467626202
    -0.790696431099460    -0.006241985130744    -0.737617515636203
   2  21
     0.061878061412280     0.001004808735702    -0.008065559530118
    -0.006290418692619    -0.763114281760928     0.804577451986168
     0.010827582126651     0.809415777472242    -0.742465809683769
   2  22
     0.018768769702290    -0.010810902877030    -0.010943982062400
    -0.009041542567601     0.023892757343508     0.002506234567493
    -0.006388554739524     0.002715684249574     0.007651704676491
   2  23
     0.002669806050103    -0.002191110205433     0.027035127207803
     0.003667359622642    -0.001936578547611    -0.019024763620060
     0.016368119899922    -0.015815709281831    -0.013383046405350
   2  24
     0.002691078388309    -0.002180685259158     0.027045513305022
     0.003630273972328    -0.001963120398505    -0.019036722864456
     0.016357519830268    -0.015819931243565    -0.013386122386256
   2  25
    -0.036803873776757     0.003883660725038    -0.006876529783017
     0.007081114432855    -0.012437250306050    -0.008413600050728
    -0.005959109241747    -0.016543929143866    -0.014058500515998
   2  26
     0.100467513783325    -0.011715065758184    -0.002777492850175
    -0.014389524838582    -0.838692251481911    -0.904895854811159
    -0.014180879910094    -0.891027868609246    -0.809639281090187
   2  27
    -0.843502383837286    -0.018453410896003     0.900839180357105
    -0.009457073007181     0.088723935547804    -0.002344018993366
     0.889675724267446     0.004498815894149    -0.806250108969616
   2  28
    -0.017336941461455    -0.007272760272455     0.033633418743510
    -0.008824789107417    -0.019770721662041     0.016638020002396
     0.026663972452647     0.016207887020275    -0.021297051280196
   2  29
     0.022609859902519    -0.002388401326085     0.001156064933915
     0.003623962462815     0.011440651788925     0.003462051475663
    -0.001938341493908    -0.008499283310598    -0.015633226065002
   2  30
    -0.042899932654120     0.003774010946425    -0.027263894829967
    -0.014102825476761     0.009964055393891    -0.018153469867508
    -0.022255577956162    -0.008764336922936     0.002252889051550
   2  31
    -0.644666438148542     0.731095268850242     0.001324511308541
     0.735634264904142    -0.639564644093835     0.003427313750757
     0.015898819138777    -0.011087984269226     0.082170692560203
   2  32
     0.006518942663051     0.009246661836892    -0.001060428135564
     0.012850804487239    -0.057522946383633     0.019497304768481
     0.001511177500139     0.018855091694108    -0.001263310129415
   3   1
    -0.018353288354883    -0.056435959638489    -0.022985410260508
    -0.055945909932402    -0.035011489957917     0.031623373891879
    -0.023847807568469     0.030699935640542     0.005961053816653
   3   2
    -0.606701998530323    -0.609823717355572    -0.002891906127822
    -0.609214409332304    -0.599868892769235    -0.018486450605455
    -0.003691096144570    -0.019429054985630    -0.025898548450059
   3   3
     5.579251010712525    -0.120774262386437    -0.249892733368070
    -0.136798546823019     5.631492319223939     0.203845931854861
    -0.225213191137036     0.232099444784663     6.217293700878334
   3   4
    -0.606690624925259    -0.609836870430516    -0.002881902470086
    -0.609223061125851    -0.599852260227029    -0.018469763603990
    -0.003677551952498    -0.019404361831983    -0.025911803562418
   3   5
    -0.018346639586841    -0.056435576286569    -0.022984865959706
    -0.055953210233951    -0.035017223271946     0.031619546609360
    -0.023847582766851     0.030695664491606     0.005962170105652
   3   6
    -0.034394623758668     0.013301865071435    -0.000768156688522
     0.013791237811103    -0.007322862432856    -0.016911712813495
    -0.001561148717751    -0.017814776983325    -0.010431592741868
   3   7
    -0.015963470930128     0.057942290248075     0.045188124993166
     0.058497430615455    -0.043940896432896    -0.005589612887762
     0.044390856443112    -0.006508420771303    -0.017548368118923
   3   8
    -0.034401856730630     0.013298220450971    -0.000766523259086
     0.013799393378123    -0.007315334221983    -0.016914417349279
    -0.001563749708418    -0.017814957114734    -0.010427040934430
   3   9
     0.022606396587187    -0.002375690647908     0.001161525079492
     0.003625503039495     0.011414945208548     0.003458997062473
    -0.001932931788708    -0.008504565085246    -0.015621099878886
   3  10
    -0.017335051701599    -0.007279084893884     0.033636142355641
    -0.008842682417027    -0.019746678402321     0.016653992836892
     0.026671126459562     0.016204334651875    -0.021286658073442
   3  11
    -0.843499555262886    -0.018439220829367     0.900810637675917
    -0.009459829946676     0.088711947504840    -0.002299535514502
     0.889691687596844     0.004500358174632    -0.806223759910795
   3  12
     0.100447274342462    -0.011725060014487    -0.002778966685085
    -0.014408266219032    -0.838641364511519    -0.904832516847421
    -0.014169922620875    -0.891017795270331    -0.809600363418386
   3  13
    -0.036803843576262     0.003894012631360    -0.006869661952521
     0.007075974454384    -0.012446048778044    -0.008395174584288
    -0.005949950011751    -0.016559867381340    -0.014050918712755
   3  14
     0.006514875314579     0.009244474404032    -0.001055187071278
     0.012869871306865    -0.057524526560849     0.019500449903414
     0.001515211558055     0.018857322927617    -0.001255881431562
   3  15
    -0.644674701307346     0.731170565306953     0.001305823608600
     0.735614432796341    -0.639616519048260     0.003433053841448
     0.015891237577297    -0.011109801417139     0.082184790591946
   3  16
    -0.042902876561169     0.003758335233241    -0.027265448048031
    -0.014076049718628     0.009979340114333    -0.018145790950030
    -0.022251500814287    -0.008759644329108     0.002268314675700
   3  17
     0.002691078388309    -0.002180685259158     0.027045513305022
     0.003630273972328    -0.001963120398505    -0.019036722864456
     0.016357519830268    -0.015819931243565    -0.013386122386256
   3  18
     0.018757960877064    -0.010829105744991    -0.010933604755366
    -0.009018044714451     0.023912757767994     0.002509076259410
    -0.006381264569292     0.002731240682251     0.007642077745141
   3  19
     0.061884056399821     0.001006624582631    -0.008064531207613
    -0.006285918455501    -0.763167555168393     0.804589824342246
     0.010816214549614     0.809491887188445    -0.742498150256812
   3  20
    -0.749895900531240    -0.011839881989534    -0.777984249316498
    -0.010202167054786     0.047474405072137     0.007294894758816
    -0.790773494133920    -0.006251603352236    -0.737641478763444
   3  21
    -0.749893408054032    -0.011812775084745    -0.778026859644470
    -0.010225889799471     0.047465510982855     0.007276467626202
    -0.790696431099460    -0.006241985130744    -0.737617515636203
   3  22
     0.061878061412280     0.001004808735702    -0.008065559530118
    -0.006290418692619    -0.763114281760928     0.804577451986168
     0.010827582126651     0.809415777472242    -0.742465809683769
   3  23
     0.018768769702290    -0.010810902877030    -0.010943982062400
    -0.009041542567601     0.023892757343508     0.002506234567493
    -0.006388554739524     0.002715684249574     0.007651704676491
   3  24
     0.002669806050103    -0.002191110205433     0.027035127207803
     0.003667359622642    -0.001936578547611    -0.019024763620060
     0.016368119899922    -0.015815709281831    -0.013383046405350
   3  25
     0.006518942663051     0.009246661836892    -0.001060428135564
     0.012850804487239    -0.057522946383633     0.019497304768481
     0.001511177500139     0.018855091694108    -0.001263310129415
   3  26
    -0.036803873776757     0.003883660725038    -0.006876529783017
     0.007081114432855    -0.012437250306050    -0.008413600050728
    -0.005959109241747    -0.016543929143866    -0.014058500515998
   3  27
     0.100467513783325    -0.011715065758184    -0.002777492850175
    -0.014389524838582    -0.838692251481911    -0.904895854811159
    -0.014180879910094    -0.891027868609246    -0.809639281090187
   3  28
    -0.843502383837286    -0.018453410896003     0.900839180357105
    -0.009457073007181     0.088723935547804    -0.002344018993366
     0.889675724267446     0.004498815894149    -0.806250108969616
   3  29
    -0.017336941461455    -0.007272760272455     0.033633418743510
    -0.008824789107417    -0.019770721662041     0.016638020002396
     0.026663972452647     0.016207887020275    -0.021297051280196
   3  30
     0.022609859902519    -0.002388401326085     0.001156064933915
     0.003623962462815     0.011440651788925     0.003462051475663
    -0.001938341493908    -0.008499283310598    -0.015633226065002
   3  31
    -0.042899932654120     0.003774010946425    -0.027263894829967
    -0.014102825476761     0.009964055393891    -0.018153469867508
    -0.022255577956162    -0.008764336922936     0.002252889051550
   3  32
    -0.644666438148542     0.731095268850242     0.001324511308541
     0.735634264904142    -0.639564644093835     0.003427313750757
     0.015898819138777    -0.011087984269226     0.082170692560203
   4   1
    -0.034401856730630     0.013298220450971    -0.000766523259086
     0.013799393378123    -0.007315334221983    -0.016914417349279
    -0.001563749708418    -0.017814957114734    -0.010427040934430
   4   2
    -0.018353288354883    -0.056435959638489    -0.022985410260508
    -0.055945909932402    -0.035011489957917     0.031623373891879
    -0.023847807568469     0.030699935640542     0.005961053816653
   4   3
    -0.606701998530323    -0.609823717355572    -0.002891906127822
    -0.609214409332304    -0.599868892769235    -0.018486450605455
    -0.003691096144570    -0.019429054985630    -0.025898548450059
   4   4
     5.579251010712525    -0.120774262386437    -0.249892733368070
    -0.136798546823019     5.631492319223939     0.203845931854861
    -0.225213191137036     0.232099444784663     6.217293700878334
   4   5
    -0.606690624925259    -0.609836870430516    -0.002881902470086
    -0.609223061125851    -0.599852260227029    -0.018469763603990
    -0.003677551952498    -0.019404361831983    -0.025911803562418
   4   6
    -0.018346639586841    -0.056435576286569    -0.022984865959706
    -0.055953210233951    -0.035017223271946     0.031619546609360
    -0.023847582766851     0.030695664491606     0.005962170105652
   4   7
    -0.034394623758668     0.013301865071435    -0.000768156688522
     0.013791237811103    -0.007322862432856    -0.016911712813495
    -0.001561148717751    -0.017814776983325    -0.010431592741868
   4   8
    -0.015963470930128     0.057942290248075     0.045188124993166
     0.058497430615455    -0.043940896432896    -0.005589612887762
     0.044390856443112    -0.006508420771303    -0.017548368118923
   4   9
    -0.042902876561169     0.003758335233241    -0.027265448048031
    -0.014076049718628     0.009979340114333    -0.018145790950030
    -0.022251500814287    -0.008759644329108     0.002268314675700
   4  10
     0.022606396587187    -0.002375690647908     0.001161525079492
     0.003625503039495     0.011414945208548     0.003458997062473
    -0.001932931788708    -0.008504565085246    -0.015621099878886
   4  11
    -0.017335051701599    -0.007279084893884     0.033636142355641
    -0.008842682417027    -0.019746678402321     0.016653992836892
     0.026671126459562     0.016204334651875    -0.021286658073442
   4  12
    -0.843499555262886    -0.018439220829367     0.900810637675917
    -0.009459829946676     0.088711947504840    -0.002299535514502
     0.889691687596844     0.004500358174632    -0.806223759910795
   4  13
     0.100447274342462    -0.011725060014487    -0.002778966685085
    -0.014408266219032    -0.838641364511519    -0.904832516847421
    -0.014169922620875    -0.891017795270331    -0.809600363418386
   4  14
    -0.036803843576262     0.003894012631360    -0.006869661952521
     0.007075974454384    -0.012446048778044    -0.008395174584288
    -0.005949950011751    -0.016559867381340    -0.014050918712755
   4  15
     0.006514875314579     0.009244474404032    -0.001055187071278
     0.012869871306865    -0.057524526560849     0.019500449903414
     0.001515211558055     0.018857322927617    -0.001255881431562
   4  16
    -0.644674701307346     0.731170565306953     0.001305823608600
     0.735614432796341    -0.639616519048260     0.003433053841448
     0.015891237577297    -0.011109801417139     0.082184790591946
   4  17
     0.002669806050103    -0.002191110205433     0.027035127207803
     0.003667359622642    -0.001936578547611    -0.019024763620060
     0.016368119899922    -0.015815709281831    -0.013383046405350
   4  18
     0.002691078388309    -0.002180685259158     0.027045513305022
     0.003630273972328    -0.001963120398505    -0.019036722864456
     0.016357519830268    -0.015819931243565    -0.013386122386256
   4  19
     0.018757960877064    -0.010829105744991    -0.010933604755366
    -0.009018044714451     0.023912757767994     0.002509076259410
    -0.006381264569292     0.002731240682251     0.007642077745141
   4  20
     0.061884056399821     0.001006624582631    -0.008064531207613
    -0.006285918455501    -0.763167555168393     0.804589824342246
     0.010816214549614     0.809491887188445    -0.742498150256812
   4  21
    -0.749895900531240    -0.011839881989534    -0.777984249316498
    -0.010202167054786     0.047474405072137     0.007294894758816
    -0.790773494133920    -0.006251603352236    -0.737641478763444
   4  22
    -0.749893408054032    -0.011812775084745    -0.778026859644470
    -0.010225889799471     0.047465510982855     0.007276467626202
    -0.790696431099460    -0.006241985130744    -0.737617515636203
   4  23
     0.061878061412280     0.001004808735702    -0.008065559530118
    -0.006290418692619    -0.763114281760928     0.804577451986168
     0.010827582126651     0.809415777472242    -0.742465809683769
   4  24
     0.018768769702290    -0.010810902877030    -0.010943982062400
    -0.009041542567601     0.023892757343508     0.002506234567493
    -0.006388554739524     0.002715684249574     0.007651704676491
   4  25
    -0.644666438148542     0.731095268850242     0.001324511308541
     0.735634264904142    -0.639564644093835     0.003427313750757
     0.015898819138777    -0.011087984269226     0.082170692560203
   4  26
     0.006518942663051     0.009246661836892    -0.001060428135564
     0.012850804487239    -0.057522946383633     0.019497304768481
     0.001511177500139     0.018855091694108    -0.001263310129415
   4  27
    -0.036803873776757     0.003883660725038    -0.006876529783017
     0.007081114432855    -0.012437250306050    -0.008413600050728
    -0.005959109241747    -0.016543929143866    -0.014058500515998
   4  28
     0.100467513783325    -0.011715065758184    -0.002777492850175
    -0.014389524838582    -0.838692251481911    -0.904895854811159
    -0.014180879910094    -0.891027868609246    -0.809639281090187
   4  29
    -0.843502383837286    -0.018453410896003     0.900839180357105
    -0.009457073007181     0.088723935547804    -0.002344018993366
     0.889675724267446     0.004498815894149    -0.806250108969616
   4  30
    -0.017336941461455    -0.007272760272455     0.033633418743510
    -0.008824789107417    -0.019770721662041     0.016638020002396
     0.026663972452647     0.016207887020275    -0.021297051280196
   4  31
     0.022609859902519    -0.002388401326085     0.001156064933915
     0.003623962462815     0.011440651788925     0.003462051475663
    -0.001938341493908    -0.008499283310598    -0.015633226065002
   4  32
    -0.042899932654120     0.003774010946425    -0.027263894829967
    -0.014102825476761     0.009964055393891    -0.018153469867508
    -0.022255577956162    -0.008764336922936     0.002252889051550
   5   1
    -0.015963470930128     0.057942290248075     0.045188124993166
     0.058497430615455    -0.043940896432896    -0.005589612887762
     0.044390856443112    -0.006508420771303    -0.017548368118923
   5   2
    -0.034401856730630     0.013298220450971    -0.000766523259086
     0.013799393378123    -0.007315334221983    -0.016914417349279
    -0.001563749708418    -0.017814957114734    -0.010427040934430
   5   3
    -0.018353288354883    -0.056435959638489    -0.022985410260508
    -0.055945909932402    -0.035011489957917     0.031623373891879
    -0.023847807568469     0.030699935640542     0.005961053816653
   5   4
    -0.606701998530323    -0.609823717355572    -0.002891906127822
    -0.609214409332304    -0.599868892769235    -0.018486450605455
    -0.003691096144570    -0.019429054985630    -0.025898548450059
   5   5
     5.579251010712525    -0.120774262386437    -0.249892733368070
    -0.136798546823019     5.631492319223939     0.203845931854861
    -0.225213191137036     0.232099444784663     6.217293700878334
   5   6
    -0.606690624925259    -0.609836870430516    -0.002881902470086
    -0.609223061125851    -0.599852260227029    -0.018469763603990
    -0.003677551952498    -0.019404361831983    -0.025911803562418
   5   7
    -0.018346639586841    -0.056435576286569    -0.022984865959706
    -0.055953210233951    -0.035017223271946     0.031619546609360
    -0.023847582766851     0.030695664491606     0.005962170105652
   5   8
    -0.034394623758668     0.013301865071435    -0.000768156688522
     0.013791237811103    -0.007322862432856    -0.016911712813495
    -0.001561148717751    -0.017814776983325    -0.010431592741868
   5   9
    -0.644674701307346     0.731170565306953     0.001305823608600
     0.735614432796341    -0.639616519048260     0.003433053841448
     0.015891237577297    -0.011109801417139     0.082184790591946
   5  10
    -0.042902876561169     0.003758335233241    -0.027265448048031
    -0.014076049718628     0.009979340114333    -0.018145790950030
    -0.022251500814287    -0.008759644329108     0.002268314675700
   5  11
     0.022606396587187    -0.002375690647908     0.001161525079492
     0.003625503039495     0.011414945208548     0.003458997062473
    -0.001932931788708    -0.008504565085246    -0.015621099878886
   5  12
    -0.017335051701599    -0.007279084893884     0.033636142355641
    -0.008842682417027    -0.019746678402321     0.016653992836892
     0.026671126459562     0.016204334651875    -0.021286658073442
   5  13
    -0.843499555262886    -0.018439220829367     0.900810637675917
    -0.009459829946676     0.088711947504840    -0.002299535514502
     0.889691687596844     0.004500358174632    -0.806223759910795
   5  14
     0.100447274342462    -0.011725060014487    -0.002778966685085
    -0.014408266219032    -0.838641364511519    -0.904832516847421
    -0.014169922620875    -0.891017795270331    -0.809600363418386
   5  15
    -0.036803843576262     0.003894012631360    -0.006869661952521
     0.007075974454384    -0.012446048778044    -0.008395174584288