32
Lattice="6.157277913950773 2.0607030179045918 4.062999216061963 -6.151891230235968 -4.104432814528264 6.077976697863621 2.033040855387246 -8.17874843837994 2.028346003244515" Properties=Z:I:1:pos:R:3:vasp_force:R:3 uuid=c8e84a75-e907-41ac-94e9-c5baf73a1dfb vasp_virial="-0.11834284813157894 0.024859030797771176 -0.17023526803114944 0.024859030797771176 0.19939205391422613 -0.40714859242926027 -0.17023526803114944 -0.40714859242926027 0.2929879865980854" vasp_energy=-108.4371063 pbc="T T T"
      46       2.04771010      -6.12966000       4.06242293      -0.04316500      -0.01587500      -0.03192800 
      46       4.09384703      -4.08177701       4.05957781       0.00763600       0.00689500      -0.00036000 
      46      -0.00386842      -6.13563642      10.14001398       0.00111300       0.00049600      -0.00038900 
      46      -4.10697056      -6.14576602       6.07947423       0.00121300       0.00012400      -0.00044700 
      46      -2.05279479      -4.09519261       6.08193369       0.00041900      -0.00020800      -0.00070800 
      46       0.00138099      -2.04461920       6.08439316       0.00121500       0.00012400      -0.00044500 
      46       4.08859762      -8.17279423       8.11519863       0.00110300       0.00048500      -0.00038000 
      46      -0.01450452      -8.18292384       4.05465888       0.00736800       0.00657700      -0.00032600 
      47       0.00007454      -6.14471386       6.05961939       0.00010000       0.00290200      -0.00588000 
      47       2.05425031      -4.09414045       6.06207885      -0.00269600       0.00921000       0.00465700 
      47       4.10842609      -2.04356704       6.06453832      -0.00169100       0.00310400      -0.00277300 
      47       0.00532395      -2.05369664       2.00399857      -0.00207000       0.00201400      -0.00222000 
      47       2.05949972      -0.00312323       2.00645804       0.00113600      -0.00112200      -0.00339100 
      47      -0.00517488     -10.23573107      10.11524020      -0.00147600       0.00202000      -0.00192800 
      47       2.04900090      -8.18515766      10.11769967      -0.00217900       0.00304700      -0.00285900 
      47      -2.05410124      -8.19528727       6.05715992      -0.00195200       0.00205700      -0.00238600 
      47       2.03704655      -8.17785903       6.08492876      -0.00116900      -0.00263500       0.00207400 
      47       4.09122233      -6.12728562       6.08738822       0.01012600      -0.00030600       0.01076800 
      47       6.14539810      -4.07671221       6.08984769       0.00937400      -0.00037200       0.01012500 
      47       2.04229596      -4.08684182       2.02930794      -0.00090700      -0.00254100       0.00220200 
      47      -2.05541949      -6.14070122       8.10974410      -0.00071600      -0.00037600       0.00028200 
      47      -0.00124372      -4.09012781       8.11220357      -0.00049400      -0.00018900       0.00026300 
      47       2.05293206      -2.03955440       8.11466304      -0.00074200      -0.00027600       0.00014500 
      47      -2.05017008      -2.04968400       4.05412329      -0.00047000      -0.00028600       0.00039800 
      47       2.02509220      -8.17056040       2.05215784       0.00074800       0.00442000       0.00944200 
      47      -2.07262325     -10.22441981       8.13259401       0.00412500      -0.00200800      -0.00023700 
      47      -0.01844748      -8.17384640       8.13505347       0.00143500      -0.00253000       0.00257700 
      47       2.03572830      -6.12327299       8.13751294       0.00186800      -0.00185800       0.00278700 
      47      -2.06737384      -6.13340259       4.07697319       0.00191700      -0.00256600       0.00303600 
      47      -0.01319807      -4.08282918       4.07943266       0.00515300      -0.00595100       0.00228000 
      47       2.04097771      -2.03225577       4.08189212       0.00131900      -0.00257700       0.00274100 
      47       4.09515348       0.01831764       4.08435159       0.00235900      -0.00180200       0.00287800 
32
Lattice="6.157277913950773 2.0607030179045918 4.062999216061963 -6.151891230235968 -4.104432814528264 6.077976697863621 2.033040855387246 -8.17874843837994 2.028346003244515" Properties=Z:I:1:pos:R:3:vasp_force:R:3 uuid=d8b4a249-eb19-46af-9fe2-4ec857159522 vasp_virial="-0.11490124662848451 0.024159159218662137 -0.1749475101681603 0.024159159218662137 0.206271859485565 -0.4103659632322519 -0.1749475101681603 -0.4103659632322519 0.29875343353860984" vasp_energy=-108.43711492 pbc="T T T"
      46       2.03967126      -6.13235042       4.05711835       0.01216500      -0.00025000      -0.01158600 
      46       4.09384703      -4.08177701       4.05957781       0.00131700       0.00037000      -0.00094600 
      46      -0.00386842      -6.13563642      10.14001398       0.00054900       0.00006000      -0.00052400 
      46      -4.10697056      -6.14576602       6.07947423       0.00105000       0.00005300      -0.00037600 
      46      -2.05279479      -4.09519261       6.08193369       0.00170400      -0.00185300      -0.00000500 
      46       0.00138099      -2.04461920       6.08439316       0.00087200       0.00040700      -0.00066900 
      46       4.08859762      -8.17279423       8.11519863       0.00085400       0.00006400      -0.00045100 
      46      -0.01450452      -8.18292384       4.05465888       0.00034300      -0.00192900      -0.00178500 
      47       0.00650112      -6.14042615       6.05327001      -0.03829600      -0.02236100       0.03453100 
      47       2.05425031      -4.09414045       6.06207885       0.00602100       0.01021800      -0.00119400 
      47       4.10842609      -2.04356704       6.06453832      -0.00217800       0.00314100      -0.00306600 
      47       0.00532395      -2.05369664       2.00399857      -0.00199200       0.00195300      -0.00217100 
      47       2.05949972      -0.00312323       2.00645804      -0.00176700       0.00292000      -0.00320000 
      47      -0.00517488     -10.23573107      10.11524020      -0.00198600       0.00189800      -0.00220100 
      47       2.04900090      -8.18515766      10.11769967      -0.00215300       0.00312000      -0.00305100 
      47      -2.05410124      -8.19528727       6.05715992       0.00562700       0.01000800      -0.00131000 
      47       2.03704655      -8.17785903       6.08492876       0.00056100      -0.00270700       0.00111800 
      47       4.09122233      -6.12728562       6.08738822      -0.00009300      -0.00043000       0.00054000 
      47       6.14539810      -4.07671221       6.08984769      -0.00078500      -0.00044300      -0.00011200 
      47       2.04229596      -4.08684182       2.02930794       0.00007600      -0.00001300      -0.00013400 
      47      -2.05541949      -6.14070122       8.10974410       0.00861700      -0.00080600      -0.00901300 
      47      -0.00124372      -4.09012781       8.11220357      -0.00119400      -0.00233700      -0.00071200 
      47       2.05293206      -2.03955440       8.11466304      -0.00059000      -0.00040900       0.00038400 
      47      -2.05017008      -2.04968400       4.05412329      -0.00049400       0.00001400       0.00027700 
      47       2.02509220      -8.17056040       2.05215784       0.00150300      -0.00261400       0.00257200 
      47      -2.07262325     -10.22441981       8.13259401       0.00256800      -0.00177300       0.00220500 
      47      -0.01844748      -8.17384640       8.13505347       0.00065200       0.00515300      -0.00478100 
      47       2.03572830      -6.12327299       8.13751294       0.00154500      -0.00230600       0.00341500 
      47      -2.06737384      -6.13340259       4.07697319       0.00095700      -0.00312000       0.00394900 
      47      -0.01319807      -4.08282918       4.07943266       0.00094100       0.00837700      -0.00684700 
      47       2.04097771      -2.03225577       4.08189212       0.00144400      -0.00233200       0.00267800 
      47       4.09515348       0.01831764       4.08435159       0.00216200      -0.00207100       0.00246400 
32
Lattice="6.157277913950773 2.0607030179045918 4.062999216061963 -6.151891230235968 -4.104432814528264 6.077976697863621 2.033040855387246 -8.17874843837994 2.028346003244515" Properties=Z:I:1:pos:R:3:vasp_force:R:3 uuid=8c1694a0-2a09-4e9c-abd1-1a5660e97ee4 vasp_virial="-0.11892041205608643 0.019841019524256345 -0.17284110056113308 0.019841019524256345 0.19832865680616238 -0.40121667118108373 -0.17284110056113308 -0.40121667118108373 0.2885407443793779" vasp_energy=-108.43706511 pbc="T T T"
      46       2.03967126      -6.13235042       4.05711835       0.00033200       0.00097800      -0.00059700 
      46       4.09384703      -4.08177701       4.05957781       0.00082700      -0.00008100      -0.00041600 
      46      -0.00386842      -6.13563642      10.14001398       0.00057100       0.00020300      -0.00049600 
      46      -4.10697056      -6.14576602       6.07947423       0.00113500       0.00029600      -0.00059300 
      46      -2.05279479      -4.09519261       6.08193369       0.00885700      -0.00749200      -0.00077800 
      46       0.00138099      -2.04461920       6.08439316       0.00100700      -0.00049800      -0.00037900 
      46       4.08859762      -8.17279423       8.11519863       0.00079000      -0.00000300      -0.00056400 
      46      -0.01450452      -8.18292384       4.05465888       0.00058700      -0.00568900      -0.00712600 
      47       0.00241991      -6.15414910       6.06195935      -0.01490900       0.05597300      -0.01697400 
      47       2.05425031      -4.09414045       6.06207885      -0.00802700      -0.00248200      -0.00255400 
      47       4.10842609      -2.04356704       6.06453832      -0.00190400       0.00293900      -0.00260500 
      47       0.00532395      -2.05369664       2.00399857      -0.00187600       0.00196600      -0.00230400 
      47       2.05949972      -0.00312323       2.00645804      -0.00176000       0.00278600      -0.00294800 
      47      -0.00517488     -10.23573107      10.11524020      -0.00193500       0.00195000      -0.00230100 
      47       2.04900090      -8.18515766      10.11769967      -0.00194200       0.00292900      -0.00260600 
      47      -2.05410124      -8.19528727       6.05715992      -0.00797100      -0.00249600      -0.00252100 
      47       2.03704655      -8.17785903       6.08492876       0.00977700      -0.01003300       0.00011400 
      47       4.09122233      -6.12728562       6.08738822      -0.00025800      -0.00012100       0.00026600 
      47       6.14539810      -4.07671221       6.08984769      -0.00076400      -0.00020000       0.00030100 
      47       2.04229596      -4.08684182       2.02930794      -0.00044500      -0.00046000       0.00048900 
      47      -2.05541949      -6.14070122       8.10974410      -0.00084100       0.00068700      -0.00009700 
      47      -0.00124372      -4.09012781       8.11220357      -0.00068600      -0.00489600      -0.00535100 
      47       2.05293206      -2.03955440       8.11466304      -0.00056300      -0.00051300       0.00013900 
      47      -2.05017008      -2.04968400       4.05412329      -0.00030600      -0.00111300       0.00051000 
      47       2.02509220      -8.17056040       2.05215784       0.00139100      -0.00262300       0.00268100 
      47      -2.07262325     -10.22441981       8.13259401       0.00218600      -0.00230900       0.00277500 
      47      -0.01844748      -8.17384640       8.13505347       0.00099000      -0.01069500       0.01198200 
      47       2.03572830      -6.12327299       8.13751294       0.00512500      -0.00060800       0.00601400 
      47      -2.06737384      -6.13340259       4.07697319       0.00570300      -0.00121200       0.00697000 
      47      -0.01319807      -4.08282918       4.07943266       0.00170800      -0.01239000       0.01379200 
      47       2.04097771      -2.03225577       4.08189212       0.00126600      -0.00273200       0.00288100 
      47       4.09515348       0.01831764       4.08435159       0.00193400      -0.00205800       0.00229700 
32
Lattice="6.157277913950773 2.0607030179045918 4.062999216061963 -6.151891230235968 -4.104432814528264 6.077976697863621 2.033040855387246 -8.17874843837994 2.028346003244515" Properties=Z:I:1:pos:R:3:vasp_force:R:3 uuid=30053c6b-af78-4a80-a697-6f97141e8c4c vasp_virial="-0.11858746344078215 0.028647170655570115 -0.16845501216972641 0.028647170655570115 0.20153923273945387 -0.41394685956419813 -0.16845501216972641 -0.41394685956419813 0.2953865756022164" vasp_energy=-108.43713808 pbc="T T T"
      46       2.03967126      -6.13235042       4.05711835       0.00094600      -0.00076100      -0.00030000 
      46       4.09384703      -4.08177701       4.05957781       0.00104700       0.00032400      -0.00071400 
      46      -0.00386842      -6.13563642      10.14001398       0.00073600       0.00001600      -0.00043700 
      46      -4.10697056      -6.14576602       6.07947423       0.00074200      -0.00005300      -0.00053800 
      46      -2.05279479      -4.09519261       6.08193369      -0.00795700       0.00804300      -0.00012400 
      46       0.00138099      -2.04461920       6.08439316       0.00086800       0.00073400      -0.00075000 
      46       4.08859762      -8.17279423       8.11519863       0.00051500       0.00022300      -0.00036400 
      46      -0.01450452      -8.18292384       4.05465888       0.00127000       0.00583100       0.00581400 
      47      -0.00227084      -6.13527862       6.05727943       0.01165100      -0.05137200       0.01205700 
      47       2.05425031      -4.09414045       6.06207885       0.00416000       0.00662700      -0.00182500 
      47       4.10842609      -2.04356704       6.06453832      -0.00215400       0.00309800      -0.00327000 
      47       0.00532395      -2.05369664       2.00399857      -0.00213500       0.00210700      -0.00209100 
      47       2.05949972      -0.00312323       2.00645804      -0.00229900       0.00324900      -0.00292700 
      47      -0.00517488     -10.23573107      10.11524020      -0.00207400       0.00212100      -0.00208500 
      47       2.04900090      -8.18515766      10.11769967      -0.00211800       0.00310700      -0.00326900 
      47      -2.05410124      -8.19528727       6.05715992       0.00382200       0.00649300      -0.00188200 
      47       2.03704655      -8.17785903       6.08492876      -0.01065300       0.00891900       0.00032100 
      47       4.09122233      -6.12728562       6.08738822      -0.00055900      -0.00045800       0.00042500 
      47       6.14539810      -4.07671221       6.08984769      -0.00054400      -0.00056200       0.00015800 
      47       2.04229596      -4.08684182       2.02930794      -0.00036900      -0.00011900       0.00020400 
      47      -2.05541949      -6.14070122       8.10974410      -0.00044200      -0.00144700       0.00053100 
      47      -0.00124372      -4.09012781       8.11220357      -0.00011600       0.00439400       0.00619200 
      47       2.05293206      -2.03955440       8.11466304      -0.00074500      -0.00024900       0.00031700 
      47      -2.05017008      -2.04968400       4.05412329      -0.00051100       0.00053200       0.00018400 
      47       2.02509220      -8.17056040       2.05215784       0.00137800      -0.00247700       0.00285400 
      47      -2.07262325     -10.22441981       8.13259401       0.00184800      -0.00146100       0.00265400 
      47      -0.01844748      -8.17384640       8.13505347       0.00174900       0.00528600      -0.00606400 
      47       2.03572830      -6.12327299       8.13751294      -0.00105500      -0.00312900      -0.00055300 
      47      -2.06737384      -6.13340259       4.07697319      -0.00297400      -0.00393600      -0.00147100 
      47      -0.01319807      -4.08282918       4.07943266       0.00235800       0.00901300      -0.00883100 
      47       2.04097771      -2.03225577       4.08189212       0.00150600      -0.00237300       0.00265500 
      47       4.09515348       0.01831764       4.08435159       0.00210800      -0.00171900       0.00313000 
32
Lattice="6.157277913950773 2.0607030179045918 4.062999216061963 -6.151891230235968 -4.104432814528264 6.077976697863621 2.033040855387246 -8.17874843837994 2.028346003244515" Properties=Z:I:1:pos:R:3:vasp_force:R:3 uuid=bc0b5ec6-8783-4106-afa7-2f3d8e717e8b vasp_virial="-0.11924996323654069 0.024943966669022273 -0.1705580243419036 0.024943966669022273 0.19952455387337784 -0.40690737455490716 -0.1705580243419036 -0.40690737455490716 0.2915202947428664" vasp_energy=-108.43710054 pbc="T T T"
      46       2.03967126      -6.13235042       4.05711835       0.00020900      -0.00205500       0.00121700 
      46       4.09384703      -4.08177701       4.05957781       0.00088200       0.00011300      -0.00055800 
      46      -0.00386842      -6.13563642      10.14001398       0.00050700       0.00018400      -0.00048200 
      46      -4.10697056      -6.14576602       6.07947423       0.00078400       0.00019800      -0.00058200 
      46      -2.05279479      -4.09519261       6.08193369       0.00060000       0.00010400      -0.00045800 
      46       0.00138099      -2.04461920       6.08439316       0.00048100      -0.00204200       0.00110400 
      46       4.08859762      -8.17279423       8.11519863       0.01110400       0.00000800       0.01008800 
      46      -0.01450452      -8.18292384       4.05465888       0.01088400       0.00005000       0.00945800 
      47       0.00007454      -6.14471386       6.05961939       0.00199500      -0.00204600      -0.00355400 
      47       2.05425031      -4.09414045       6.06207885      -0.00213100       0.00203400      -0.00224600 
      47       4.10842609      -2.04356704       6.06453832      -0.00177800       0.00311900      -0.00277600 
      47       0.00532395      -2.05369664       2.00399857      -0.00297700       0.00795500       0.00355800 
      47       2.05949972      -0.00312323       2.00645804      -0.00061900       0.00275100      -0.00555500 
      47      -0.00517488     -10.23573107      10.11524020      -0.00185300       0.00202800      -0.00233800 
      47       2.04900090      -8.18515766      10.11769967      -0.00224800       0.00302900      -0.00263700 
      47      -2.05410124      -8.19528727       6.05715992      -0.00141600       0.00208100      -0.00202800 
      47       2.04508539      -8.17516861       6.09023334      -0.04573600      -0.01437000      -0.02878900 
      47       4.09122233      -6.12728562       6.08738822       0.00777700       0.00818200      -0.00001500 
      47       6.14539810      -4.07671221       6.08984769      -0.00056900      -0.00046700       0.00030600 
      47       2.04229596      -4.08684182       2.02930794      -0.00052300      -0.00038900       0.00042000 
      47      -2.05541949      -6.14070122       8.10974410      -0.00052900      -0.00054100       0.00009900 
      47      -0.00124372      -4.09012781       8.11220357      -0.00052500      -0.00038900       0.00041900 
      47       2.05293206      -2.03955440       8.11466304      -0.00057000      -0.00047100       0.00031100 
      47      -2.05017008      -2.04968400       4.05412329       0.00751700       0.00787100       0.00003700 
      47       2.02509220      -8.17056040       2.05215784       0.00116800      -0.00254000       0.00307000 
      47      -2.07262325     -10.22441981       8.13259401       0.00217300      -0.00189500       0.00257100 
      47      -0.01844748      -8.17384640       8.13505347       0.00281800      -0.00281300       0.00015400 
      47       2.03572830      -6.12327299       8.13751294       0.00099700       0.00418700       0.00860500 
      47      -2.06737384      -6.13340259       4.07697319       0.00163500      -0.00245000       0.00293000 
      47      -0.01319807      -4.08282918       4.07943266       0.00189500      -0.00188600       0.00266300 
      47       2.04097771      -2.03225577       4.08189212       0.00543900      -0.00769800       0.00212800 
      47       4.09515348       0.01831764       4.08435159       0.00261000      -0.00184400       0.00287700 
32
Lattice="6.157277913950773 2.0607030179045918 4.062999216061963 -6.151891230235968 -4.104432814528264 6.077976697863621 2.033040855387246 -8.17874843837994 2.028346003244515" Properties=Z:I:1:pos:R:3:vasp_force:R:3 uuid=22b95053-5be9-45f8-b14a-b3cd47eab920 vasp_virial="-0.11883547618483534 0.02457364627036749 -0.17018770394324878 0.02457364627036749 0.1998235281401817 -0.4071655796035106 -0.17018770394324878 -0.4071655796035106 0.2927671533328325" vasp_energy=-108.43711145 pbc="T T T"
      46       2.03967126      -6.13235042       4.05711835       0.00112000       0.00224300      -0.00210100 
      46       4.09384703      -4.08177701       4.05957781       0.00100200       0.00009600      -0.00053900 
      46      -0.00386842      -6.13563642      10.14001398       0.00081800       0.00000200      -0.00041500 
      46      -4.10697056      -6.14576602       6.07947423       0.00109500       0.00001600      -0.00051500 
      46      -2.05279479      -4.09519261       6.08193369       0.00072000       0.00008700      -0.00043900 
      46       0.00138099      -2.04461920       6.08439316       0.00139300       0.00225400      -0.00221400 
      46       4.08859762      -8.17279423       8.11519863      -0.00928100       0.00015000      -0.01045400 
      46      -0.01450452      -8.18292384       4.05465888      -0.00950200       0.00019300      -0.01108700 
      47       0.00007454      -6.14471386       6.05961939      -0.00607300       0.00813300      -0.00226600 
      47       2.05425031      -4.09414045       6.06207885      -0.00186700       0.00200500      -0.00211200 
      47       4.10842609      -2.04356704       6.06453832      -0.00226900       0.00288500      -0.00306800 
      47       0.00532395      -2.05369664       2.00399857      -0.00097000      -0.00406900      -0.00805400 
      47       2.05949972      -0.00312323       2.00645804      -0.00345100       0.00324800      -0.00029200 
      47      -0.00517488     -10.23573107      10.11524020      -0.00214500       0.00201400      -0.00202000 
      47       2.04900090      -8.18515766      10.11769967      -0.00180100       0.00297600      -0.00320800 
      47      -2.05410124      -8.19528727       6.05715992      -0.00258300       0.00196200      -0.00232600 
      47       2.02900771      -8.18054945       6.07962417       0.04487100       0.01315300       0.02908900 
      47       4.09122233      -6.12728562       6.08738822      -0.00832000      -0.00848200       0.00068900 
      47       6.14539810      -4.07671221       6.08984769      -0.00072500      -0.00032000       0.00017800 
      47       2.04229596      -4.08684182       2.02930794      -0.00027800      -0.00022200       0.00030700 
      47      -2.05541949      -6.14070122       8.10974410      -0.00076700      -0.00025000       0.00039000 
      47      -0.00124372      -4.09012781       8.11220357      -0.00027900      -0.00022200       0.00030500 
      47       2.05293206      -2.03955440       8.11466304      -0.00072700      -0.00032400       0.00018200 
      47      -2.05017008      -2.04968400       4.05412329      -0.00858000      -0.00879400       0.00074100 
      47       2.02509220      -8.17056040       2.05215784       0.00161400      -0.00259300       0.00249900 
      47      -2.07262325     -10.22441981       8.13259401       0.00188000      -0.00190900       0.00289000 
      47      -0.01844748      -8.17384640       8.13505347      -0.00001500      -0.00231600       0.00541700 
      47       2.03572830      -6.12327299       8.13751294       0.00300400      -0.00783600      -0.00300700 
      47      -2.06737384      -6.13340259       4.07697319       0.00114500      -0.00268300       0.00263800 
      47      -0.01319807      -4.08282918       4.07943266       0.00215800      -0.00191600       0.00279700 
      47       2.04097771      -2.03225577       4.08189212      -0.00262800       0.00248100       0.00341600 
      47       4.09515348       0.01831764       4.08435159       0.00144300      -0.00196300       0.00258000 
32
Lattice="6.157277913950773 2.0607030179045918 4.062999216061963 -6.151891230235968 -4.104432814528264 6.077976697863621 2.033040855387246 -8.17874843837994 2.028346003244515" Properties=Z:I:1:pos:R:3:vasp_force:R:3 uuid=f75e8b9a-835c-4470-9f83-14f915482d73 vasp_virial="-0.11904951458038811 0.024774094926520076 -0.17161802401511728 0.024774094926520076 0.19971820765983034 -0.4076921820052673 -0.17161802401511728 -0.4076921820052673 0.291642602397468" vasp_energy=-108.43711573 pbc="T T T"
      46       2.03967126      -6.13235042       4.05711835       0.00107500      -0.00818200       0.00763600 
      46       4.09384703      -4.08177701       4.05957781       0.00107300       0.00011100      -0.00063900 
      46      -0.00386842      -6.13563642      10.14001398       0.00048400       0.00020800      -0.00034000 
      46      -4.10697056      -6.14576602       6.07947423       0.00076500       0.00022100      -0.00044000 
      46      -2.05279479      -4.09519261       6.08193369       0.00079400       0.00010300      -0.00054300 
      46       0.00138099      -2.04461920       6.08439316       0.00141400      -0.00850400       0.00784800 
      46       4.08859762      -8.17279423       8.11519863       0.00070300       0.00016200      -0.00089700 
      46      -0.01450452      -8.18292384       4.05465888       0.00101300       0.00017700      -0.00097600 
      47       0.00007454      -6.14471386       6.05961939      -0.00312600       0.00521800      -0.00379200 
      47       2.05425031      -4.09414045       6.06207885      -0.00189100       0.00162800      -0.00216700 
      47       4.10842609      -2.04356704       6.06453832      -0.00207600       0.00299800      -0.00310600 
      47       0.00532395      -2.05369664       2.00399857      -0.00123600       0.00402900      -0.00118900 
      47       2.05949972      -0.00312323       2.00645804      -0.01134900       0.00350000       0.00629400 
      47      -0.00517488     -10.23573107      10.11524020      -0.00251500       0.00180100      -0.00171100 
      47       2.04900090      -8.18515766      10.11769967      -0.00190300       0.00306200      -0.00261300 
      47      -2.05410124      -8.19528727       6.05715992      -0.00224700       0.00214500      -0.00233400 
      47       2.03061996      -8.18214674       6.09127813       0.03539100       0.02380800      -0.03419700 
      47       4.09122233      -6.12728562       6.08738822      -0.00809100      -0.00812800      -0.00063900 
      47       6.14539810      -4.07671221       6.08984769      -0.00059000      -0.00052900       0.00023400 
      47       2.04229596      -4.08684182       2.02930794      -0.00033500      -0.00055200       0.00064000 
      47      -2.05541949      -6.14070122       8.10974410      -0.00102900      -0.00022400       0.00050400 
      47      -0.00124372      -4.09012781       8.11220357      -0.00033400      -0.00055700       0.00064300 
      47       2.05293206      -2.03955440       8.11466304      -0.00058800      -0.00053100       0.00023700 
      47      -2.05017008      -2.04968400       4.05412329      -0.00837000      -0.00842300      -0.00069700 
      47       2.02509220      -8.17056040       2.05215784       0.00150900      -0.00251000       0.00309300 
      47      -2.07262325     -10.22441981       8.13259401       0.00150900      -0.00212200       0.00319900 
      47      -0.01844748      -8.17384640       8.13505347      -0.00835600      -0.00202500       0.01241700 
      47       2.03572830      -6.12327299       8.13751294       0.00280000       0.00009800       0.00369400 
      47      -2.06737384      -6.13340259       4.07697319       0.00133700      -0.00257100       0.00260000 
      47      -0.01319807      -4.08282918       4.07943266       0.00213400      -0.00229300       0.00274000 
      47       2.04097771      -2.03225577       4.08189212       0.00025800      -0.00034300       0.00192700 
      47       4.09515348       0.01831764       4.08435159       0.00177700      -0.00177800       0.00257500 
32
Lattice="6.157277913950773 2.0607030179045918 4.062999216061963 -6.151891230235968 -4.104432814528264 6.077976697863621 2.033040855387246 -8.17874843837994 2.028346003244515" Properties=Z:I:1:pos:R:3:vasp_force:R:3 uuid=2e3c8a41-b690-43ab-92ea-8387775aba20 vasp_virial="-0.11938246319569239 0.024631402662818234 -0.17156026762266655 0.024631402662818234 0.1994294256975766 -0.407746540962868 -0.17156026762266655 -0.407746540962868 0.29252933289332944" vasp_energy=-108.43710499 pbc="T T T"
      46       2.03967126      -6.13235042       4.05711835       0.00019200       0.00867600      -0.00884800 
      46       4.09384703      -4.08177701       4.05957781       0.00081100       0.00006800      -0.00045700 
      46      -0.00386842      -6.13563642      10.14001398       0.00084100      -0.00005100      -0.00055900 
      46      -4.10697056      -6.14576602       6.07947423       0.00112100      -0.00003800      -0.00066000 
      46      -2.05279479      -4.09519261       6.08193369       0.00053300       0.00006000      -0.00036100 
      46       0.00138099      -2.04461920       6.08439316       0.00053000       0.00835100      -0.00863500 
      46       4.08859762      -8.17279423       8.11519863       0.00059200      -0.00000600      -0.00002400 
      46      -0.01450452      -8.18292384       4.05465888       0.00090300       0.00000900      -0.00010200 