  30
   1   1
     6.306554060116151    -0.052136103848622    -0.098509497588111
    -0.072085584310610     6.155523617067337     0.327039568028404
    -0.028327599909822     0.305011926106129     6.144373391108938
   1   2
    -0.054393613421318     0.048046496393386    -0.003295948445958
    -0.008562802424105    -0.654395967649916     0.633550584701944
     0.031142682275116     0.681051030149565    -0.642608833467610
   1   3
     0.020649459867581     0.022974492012865     0.030643075390341
     0.022289242454431    -0.014745915092858     0.048031573128675
     0.016816174139815     0.046962529682998    -0.022023231045377
   1   4
     0.019852048154502     0.021545387692272     0.019232121078648
     0.024139194837777    -0.014393661973579     0.046595146899524
     0.028691708683014     0.048797774595516    -0.021857395587966
   1   5
    -0.055115310514574    -0.009121526525069     0.033412800653721
     0.048926748480533    -0.654247439080237     0.680823382466020
    -0.004842794956071     0.634552674306119    -0.642528552755819
   1   6
    -0.816210453589969    -0.030251436236166    -0.855827239691463
    -0.029439905028390    -0.068712583159493     0.022990988018200
    -0.858583796370280     0.023970534110676    -0.824798414944463
   1   7
    -0.795167385939506    -0.869558851046772    -0.024970583747748
    -0.868864322062123    -0.819846451631803     0.014942383987556
    -0.027121854219642     0.015698010277639    -0.031635022088209
   1   8
    -0.025170723407460    -0.028106376275050    -0.038212727549982
    -0.027880951443596    -0.018621205227879     0.027642865301462
    -0.040702715021701     0.028617234360312    -0.028347935436740
   1   9
    -0.003991916590190    -0.004160501016736     0.005604830365159
    -0.004099731673489     0.008297598015507    -0.015735476558857
     0.002750833103664    -0.014665184959988    -0.022313725200428
   1  10
    -0.010827624628306     0.000592174378838    -0.004952517127492
     0.001209305354639    -0.027958413265257    -0.017951287677446
    -0.008322503914196    -0.017287964419963    -0.020829181769553
   1  11
    -0.852191143001198     0.959209965893796    -0.003754418480052
     0.924513184926461    -0.874887127129032     0.012317259565146
     0.003182885809164     0.006507172311251     0.072856941695553
   1  12
    -0.844631483699441    -0.017929866483021     0.951248140563260
    -0.005012190628624     0.083083457696719     0.000614551760596
     0.917777624407128     0.007469470639653    -0.868624294435412
   1  13
     0.012622288446223    -0.001619790913738     0.017391684296938
     0.009019567825886    -0.007606502791885     0.018390856922072
     0.010541579747139     0.015617803975502     0.000969742268818
   1  14
    -0.745319962113097    -0.008333397144531     0.785788335924870
    -0.006043452024479     0.070582856387785     0.008667200535530
     0.820017508837638     0.003244865197354    -0.744509312973338
   1  15
    -0.744996147519593     0.795986912660197    -0.008849658936986
     0.834399079347478    -0.757310264351102     0.004712822771295
     0.002012444506967     0.017726703451324     0.050518824894092
   1  16
    -0.003887638698219     0.018570389982737    -0.010137166112428
     0.007131325971534    -0.010010504821506    -0.012397237133255
    -0.005108134771943    -0.014689562392239    -0.006390058125287
   1  17
    -0.028097774311124    -0.005073033196963    -0.018141837106564
     0.004193649490774     0.005159184438153    -0.009668708573917
    -0.033210417834497    -0.009406424399080    -0.042950102914565
   1  18
    -0.017628037287756    -0.021409767641437    -0.017725463467870
    -0.025045368785209    -0.002335736048400     0.004143898514544
    -0.030353039183189     0.003774742241102    -0.005654358924440
   1  19
    -0.761238449203430    -0.801567746332624     0.026126820871527
    -0.797831407781459    -0.768250747522187     0.004168582507963
     0.002123599890822    -0.009916994695577     0.052802155060240
   1  20
    -0.739363670674764     0.019545889802496    -0.763168094302862
    -0.004068691753010     0.029986624504430    -0.007894693298967
    -0.757527138697622     0.011728988228943    -0.742300836343825
   1  21
    -0.035455995068176     0.011841550637122     0.017159495862942
    -0.007900864299712     0.028917785432192     0.004941601051722
    -0.005739458517825     0.000413384506005     0.023576754299011
   1  22
    -0.012593278743868    -0.021238183294651     0.012205860868005
    -0.025314209614136    -0.033468828614893    -0.020013595705891
     0.003507528142937    -0.015944893394042    -0.011068943734333
   1  23
     0.010318016901289    -0.003397817735705    -0.025420524020737
    -0.009202280625501     0.011107540648600    -0.005457380239975
    -0.008037624242643    -0.012905286061784    -0.076654694544053
   1  24
     0.104367211608595     0.010372122260847     0.012381652671326
     0.007814334719959    -0.831568257826766    -0.944847418611258
     0.011893520287460    -0.944331039308823    -0.828058565010628
   1  25
     0.015826114601851    -0.000328262381377    -0.011445476453515
     0.022822549966280    -0.063995899658200    -0.008052034334845
    -0.020902195868605     0.000958640353907     0.005259934353037
   1  26
     0.076131988390668    -0.026640673951197    -0.020273356414501
    -0.003445508370628    -0.737321498747574    -0.806937131221424
    -0.006177316027793    -0.809313487503538    -0.742215033903545
   1  27
     0.009494858649672     0.008183595557559    -0.016053981848874
     0.007780541597413     0.014545218548192     0.000307218022371
    -0.010331515927804    -0.013840525745744    -0.042927738362471
   1  28
    -0.012251689999889    -0.029670701870650     0.018470987443521
    -0.030586118179219    -0.019655553162133    -0.015566241454095
     0.016754543693979    -0.011174123615698    -0.011059036692682
   1  29
    -0.018861097930043     0.002448240209397     0.005161832089924
    -0.003840850022471     0.016649554355832     0.003144582906355
    -0.001257457706235     0.008778640584427     0.016266576981924
   1  30
     0.001575155767743     0.011230091324845    -0.014090276574211
     0.014985575110475    -0.044520611102425     0.001497259147273
    -0.020668130408568     0.012591423168195     0.012730950589780
   2   1
    -0.055115310514574    -0.009121526525069     0.033412800653721
     0.048926748480533    -0.654247439080237     0.680823382466020
    -0.004842794956071     0.634552674306119    -0.642528552755820
   2   2
     6.306554060116151    -0.052136103848623    -0.098509497588111
    -0.072085584310611     6.155523617067340     0.327039568028404
    -0.028327599909822     0.305011926106129     6.144373391108941
   2   3
    -0.054393613421318     0.048046496393386    -0.003295948445958
    -0.008562802424105    -0.654395967649916     0.633550584701944
     0.031142682275116     0.681051030149565    -0.642608833467611
   2   4
     0.020649459867581     0.022974492012865     0.030643075390341
     0.022289242454431    -0.014745915092858     0.048031573128675
     0.016816174139815     0.046962529682998    -0.022023231045377
   2   5
     0.019852048154502     0.021545387692272     0.019232121078648
     0.024139194837777    -0.014393661973579     0.046595146899524
     0.028691708683014     0.048797774595516    -0.021857395587966
   2   6
    -0.010827624628306     0.000592174378838    -0.004952517127492
     0.001209305354639    -0.027958413265257    -0.017951287677446
    -0.008322503914196    -0.017287964419963    -0.020829181769553
   2   7
    -0.816210453589969    -0.030251436236166    -0.855827239691464
    -0.029439905028389    -0.068712583159493     0.022990988018200
    -0.858583796370280     0.023970534110676    -0.824798414944464
   2   8
    -0.795167385939506    -0.869558851046773    -0.024970583747748
    -0.868864322062123    -0.819846451631803     0.014942383987556
    -0.027121854219642     0.015698010277639    -0.031635022088209
   2   9
    -0.025170723407460    -0.028106376275050    -0.038212727549982
    -0.027880951443596    -0.018621205227879     0.027642865301462
    -0.040702715021701     0.028617234360312    -0.028347935436740
   2  10
    -0.003991916590190    -0.004160501016736     0.005604830365159
    -0.004099731673489     0.008297598015507    -0.015735476558857
     0.002750833103664    -0.014665184959988    -0.022313725200428
   2  11
    -0.744996147519593     0.795986912660197    -0.008849658936986
     0.834399079347479    -0.757310264351102     0.004712822771295
     0.002012444506967     0.017726703451324     0.050518824894092
   2  12
    -0.852191143001198     0.959209965893797    -0.003754418480052
     0.924513184926462    -0.874887127129032     0.012317259565146
     0.003182885809164     0.006507172311251     0.072856941695553
   2  13
    -0.844631483699441    -0.017929866483021     0.951248140563260
    -0.005012190628624     0.083083457696719     0.000614551760596
     0.917777624407128     0.007469470639653    -0.868624294435412
   2  14
     0.012622288446223    -0.001619790913738     0.017391684296938
     0.009019567825886    -0.007606502791885     0.018390856922072
     0.010541579747140     0.015617803975502     0.000969742268818
   2  15
    -0.745319962113097    -0.008333397144530     0.785788335924871
    -0.006043452024479     0.070582856387785     0.008667200535530
     0.820017508837638     0.003244865197354    -0.744509312973339
   2  16
    -0.739363670674764     0.019545889802496    -0.763168094302862
    -0.004068691753010     0.029986624504430    -0.007894693298966
    -0.757527138697622     0.011728988228943    -0.742300836343825
   2  17
    -0.003887638698219     0.018570389982737    -0.010137166112428
     0.007131325971534    -0.010010504821506    -0.012397237133255
    -0.005108134771943    -0.014689562392239    -0.006390058125287
   2  18
    -0.028097774311124    -0.005073033196963    -0.018141837106564
     0.004193649490774     0.005159184438153    -0.009668708573917
    -0.033210417834497    -0.009406424399080    -0.042950102914565
   2  19
    -0.017628037287756    -0.021409767641437    -0.017725463467870
    -0.025045368785209    -0.002335736048400     0.004143898514544
    -0.030353039183189     0.003774742241102    -0.005654358924440
   2  20
    -0.761238449203430    -0.801567746332625     0.026126820871527
    -0.797831407781459    -0.768250747522187     0.004168582507963
     0.002123599890822    -0.009916994695577     0.052802155060240
   2  21
     0.015826114601851    -0.000328262381377    -0.011445476453515
     0.022822549966280    -0.063995899658200    -0.008052034334845
    -0.020902195868605     0.000958640353907     0.005259934353037
   2  22
    -0.035455995068176     0.011841550637122     0.017159495862942
    -0.007900864299712     0.028917785432192     0.004941601051722
    -0.005739458517825     0.000413384506005     0.023576754299011
   2  23
    -0.012593278743868    -0.021238183294651     0.012205860868005
    -0.025314209614136    -0.033468828614893    -0.020013595705891
     0.003507528142937    -0.015944893394042    -0.011068943734333
   2  24
     0.010318016901289    -0.003397817735705    -0.025420524020737
    -0.009202280625501     0.011107540648600    -0.005457380239975
    -0.008037624242643    -0.012905286061784    -0.076654694544053
   2  25
     0.104367211608595     0.010372122260847     0.012381652671326
     0.007814334719959    -0.831568257826766    -0.944847418611259
     0.011893520287460    -0.944331039308823    -0.828058565010629
   2  26
     0.001575155767743     0.011230091324845    -0.014090276574211
     0.014985575110475    -0.044520611102425     0.001497259147273
    -0.020668130408568     0.012591423168195     0.012730950589780
   2  27
     0.076131988390668    -0.026640673951197    -0.020273356414501
    -0.003445508370628    -0.737321498747575    -0.806937131221424
    -0.006177316027793    -0.809313487503538    -0.742215033903546
   2  28
     0.009494858649672     0.008183595557559    -0.016053981848874
     0.007780541597413     0.014545218548192     0.000307218022371
    -0.010331515927804    -0.013840525745744    -0.042927738362471
   2  29
    -0.012251689999889    -0.029670701870650     0.018470987443521
    -0.030586118179219    -0.019655553162133    -0.015566241454095
     0.016754543693979    -0.011174123615698    -0.011059036692682
   2  30
    -0.018861097930043     0.002448240209397     0.005161832089924
    -0.003840850022471     0.016649554355832     0.003144582906355
    -0.001257457706235     0.008778640584427     0.016266576981924
   3   1
     0.019852048154502     0.021545387692272     0.019232121078648
     0.024139194837777    -0.014393661973579     0.046595146899524
     0.028691708683014     0.048797774595516    -0.021857395587966
   3   2
    -0.055115310514574    -0.009121526525069     0.033412800653721
     0.048926748480533    -0.654247439080237     0.680823382466020
    -0.004842794956071     0.634552674306119    -0.642528552755820
   3   3
     6.306554060116151    -0.052136103848623    -0.098509497588111
    -0.072085584310611     6.155523617067340     0.327039568028404
    -0.028327599909822     0.305011926106129     6.144373391108941
   3   4
    -0.054393613421318     0.048046496393386    -0.003295948445958
    -0.008562802424105    -0.654395967649916     0.633550584701944
     0.031142682275116     0.681051030149565    -0.642608833467611
   3   5
     0.020649459867581     0.022974492012865     0.030643075390341
     0.022289242454431    -0.014745915092858     0.048031573128675
     0.016816174139815     0.046962529682998    -0.022023231045377
   3   6
    -0.003991916590190    -0.004160501016736     0.005604830365159
    -0.004099731673489     0.008297598015507    -0.015735476558857
     0.002750833103664    -0.014665184959988    -0.022313725200428
   3   7
    -0.010827624628306     0.000592174378838    -0.004952517127492
     0.001209305354639    -0.027958413265257    -0.017951287677446
    -0.008322503914196    -0.017287964419963    -0.020829181769553
   3   8
    -0.816210453589969    -0.030251436236166    -0.855827239691464
    -0.029439905028389    -0.068712583159493     0.022990988018200
    -0.858583796370280     0.023970534110676    -0.824798414944464
   3   9
    -0.795167385939506    -0.869558851046773    -0.024970583747748
    -0.868864322062123    -0.819846451631803     0.014942383987556
    -0.027121854219642     0.015698010277639    -0.031635022088209
   3  10
    -0.025170723407460    -0.028106376275050    -0.038212727549982
    -0.027880951443596    -0.018621205227879     0.027642865301462
    -0.040702715021701     0.028617234360312    -0.028347935436740
   3  11
    -0.745319962113097    -0.008333397144530     0.785788335924871
    -0.006043452024479     0.070582856387785     0.008667200535530
     0.820017508837638     0.003244865197354    -0.744509312973339
   3  12
    -0.744996147519593     0.795986912660197    -0.008849658936986
     0.834399079347479    -0.757310264351102     0.004712822771295
     0.002012444506967     0.017726703451324     0.050518824894092
   3  13
    -0.852191143001198     0.959209965893797    -0.003754418480052
     0.924513184926462    -0.874887127129032     0.012317259565146
     0.003182885809164     0.006507172311251     0.072856941695553
   3  14
    -0.844631483699441    -0.017929866483021     0.951248140563260
    -0.005012190628624     0.083083457696719     0.000614551760596
     0.917777624407128     0.007469470639653    -0.868624294435412
   3  15
     0.012622288446223    -0.001619790913738     0.017391684296938
     0.009019567825886    -0.007606502791885     0.018390856922072
     0.010541579747140     0.015617803975502     0.000969742268818
   3  16
    -0.761238449203430    -0.801567746332625     0.026126820871527
    -0.797831407781459    -0.768250747522187     0.004168582507963
     0.002123599890822    -0.009916994695577     0.052802155060240
   3  17
    -0.739363670674764     0.019545889802496    -0.763168094302862
    -0.004068691753010     0.029986624504430    -0.007894693298966
    -0.757527138697622     0.011728988228943    -0.742300836343825
   3  18
    -0.003887638698219     0.018570389982737    -0.010137166112428
     0.007131325971534    -0.010010504821506    -0.012397237133255
    -0.005108134771943    -0.014689562392239    -0.006390058125287
   3  19
    -0.028097774311124    -0.005073033196963    -0.018141837106564
     0.004193649490774     0.005159184438153    -0.009668708573917
    -0.033210417834497    -0.009406424399080    -0.042950102914565
   3  20
    -0.017628037287756    -0.021409767641437    -0.017725463467870
    -0.025045368785209    -0.002335736048400     0.004143898514544
    -0.030353039183189     0.003774742241102    -0.005654358924440
   3  21
     0.104367211608595     0.010372122260847     0.012381652671326
     0.007814334719959    -0.831568257826766    -0.944847418611259
     0.011893520287460    -0.944331039308823    -0.828058565010629
   3  22
     0.015826114601851    -0.000328262381377    -0.011445476453515
     0.022822549966280    -0.063995899658200    -0.008052034334845
    -0.020902195868605     0.000958640353907     0.005259934353037
   3  23
    -0.035455995068176     0.011841550637122     0.017159495862942
    -0.007900864299712     0.028917785432192     0.004941601051722
    -0.005739458517825     0.000413384506005     0.023576754299011
   3  24
    -0.012593278743868    -0.021238183294651     0.012205860868005
    -0.025314209614136    -0.033468828614893    -0.020013595705891
     0.003507528142937    -0.015944893394042    -0.011068943734333
   3  25
     0.010318016901289    -0.003397817735705    -0.025420524020737
    -0.009202280625501     0.011107540648600    -0.005457380239975
    -0.008037624242643    -0.012905286061784    -0.076654694544053
   3  26
    -0.018861097930043     0.002448240209397     0.005161832089924
    -0.003840850022471     0.016649554355832     0.003144582906355
    -0.001257457706235     0.008778640584427     0.016266576981924
   3  27
     0.001575155767743     0.011230091324845    -0.014090276574211
     0.014985575110475    -0.044520611102425     0.001497259147273
    -0.020668130408568     0.012591423168195     0.012730950589780
   3  28
     0.076131988390668    -0.026640673951197    -0.020273356414501
    -0.003445508370628    -0.737321498747575    -0.806937131221424
    -0.006177316027793    -0.809313487503538    -0.742215033903546
   3  29
     0.009494858649672     0.008183595557559    -0.016053981848874
     0.007780541597413     0.014545218548192     0.000307218022371
    -0.010331515927804    -0.013840525745744    -0.042927738362471
   3  30
    -0.012251689999889    -0.029670701870650     0.018470987443521
    -0.030586118179219    -0.019655553162133    -0.015566241454095
     0.016754543693979    -0.011174123615698    -0.011059036692682
   4   1
     0.020649459867581     0.022974492012865     0.030643075390341
     0.022289242454431    -0.014745915092858     0.048031573128675
     0.016816174139815     0.046962529682998    -0.022023231045377
   4   2
     0.019852048154502     0.021545387692272     0.019232121078648
     0.024139194837777    -0.014393661973579     0.046595146899524
     0.028691708683014     0.048797774595516    -0.021857395587966
   4   3
    -0.055115310514574    -0.009121526525069     0.033412800653721
     0.048926748480533    -0.654247439080237     0.680823382466020
    -0.004842794956071     0.634552674306119    -0.642528552755820
   4   4
     6.306554060116151    -0.052136103848623    -0.098509497588111
    -0.072085584310611     6.155523617067340     0.327039568028404
    -0.028327599909822     0.305011926106129     6.144373391108941
   4   5
    -0.054393613421318     0.048046496393386    -0.003295948445958
    -0.008562802424105    -0.654395967649916     0.633550584701944
     0.031142682275116     0.681051030149565    -0.642608833467611
   4   6
    -0.025170723407460    -0.028106376275050    -0.038212727549982
    -0.027880951443596    -0.018621205227879     0.027642865301462
    -0.040702715021701     0.028617234360312    -0.028347935436740
   4   7
    -0.003991916590190    -0.004160501016736     0.005604830365159
    -0.004099731673489     0.008297598015507    -0.015735476558857
     0.002750833103664    -0.014665184959988    -0.022313725200428
   4   8
    -0.010827624628306     0.000592174378838    -0.004952517127492
     0.001209305354639    -0.027958413265257    -0.017951287677446
    -0.008322503914196    -0.017287964419963    -0.020829181769553
   4   9
    -0.816210453589969    -0.030251436236166    -0.855827239691464
    -0.029439905028389    -0.068712583159493     0.022990988018200
    -0.858583796370280     0.023970534110676    -0.824798414944464
   4  10
    -0.795167385939506    -0.869558851046773    -0.024970583747748
    -0.868864322062123    -0.819846451631803     0.014942383987556
    -0.027121854219642     0.015698010277639    -0.031635022088209
   4  11
     0.012622288446223    -0.001619790913738     0.017391684296938
     0.009019567825886    -0.007606502791885     0.018390856922072
     0.010541579747140     0.015617803975502     0.000969742268818
   4  12
    -0.745319962113097    -0.008333397144530     0.785788335924871
    -0.006043452024479     0.070582856387785     0.008667200535530
     0.820017508837638     0.003244865197354    -0.744509312973339
   4  13
    -0.744996147519593     0.795986912660197    -0.008849658936986
     0.834399079347479    -0.757310264351102     0.004712822771295
     0.002012444506967     0.017726703451324     0.050518824894092
   4  14
    -0.852191143001198     0.959209965893797    -0.003754418480052
     0.924513184926462    -0.874887127129032     0.012317259565146
     0.003182885809164     0.006507172311251     0.072856941695553
   4  15
    -0.844631483699441    -0.017929866483021     0.951248140563260
    -0.005012190628624     0.083083457696719     0.000614551760596
     0.917777624407128     0.007469470639653    -0.868624294435412
   4  16
    -0.017628037287756    -0.021409767641437    -0.017725463467870
    -0.025045368785209    -0.002335736048400     0.004143898514544
    -0.030353039183189     0.003774742241102    -0.005654358924440
   4  17
    -0.761238449203430    -0.801567746332625     0.026126820871527
    -0.797831407781459    -0.768250747522187     0.004168582507963
     0.002123599890822    -0.009916994695577     0.052802155060240
   4  18
    -0.739363670674764     0.019545889802496    -0.763168094302862
    -0.004068691753010     0.029986624504430    -0.007894693298966
    -0.757527138697622     0.011728988228943    -0.742300836343825
   4  19
    -0.003887638698219     0.018570389982737    -0.010137166112428
     0.007131325971534    -0.010010504821506    -0.012397237133255
    -0.005108134771943    -0.014689562392239    -0.006390058125287
   4  20
    -0.028097774311124    -0.005073033196963    -0.018141837106564
     0.004193649490774     0.005159184438153    -0.009668708573917
    -0.033210417834497    -0.009406424399080    -0.042950102914565
   4  21
     0.010318016901289    -0.003397817735705    -0.025420524020737
    -0.009202280625501     0.011107540648600    -0.005457380239975
    -0.008037624242643    -0.012905286061784    -0.076654694544053
   4  22
     0.104367211608595     0.010372122260847     0.012381652671326
     0.007814334719959    -0.831568257826766    -0.944847418611259
     0.011893520287460    -0.944331039308823    -0.828058565010629
   4  23
     0.015826114601851    -0.000328262381377    -0.011445476453515
     0.022822549966280    -0.063995899658200    -0.008052034334845
    -0.020902195868605     0.000958640353907     0.005259934353037
   4  24
    -0.035455995068176     0.011841550637122     0.017159495862942
    -0.007900864299712     0.028917785432192     0.004941601051722
    -0.005739458517825     0.000413384506005     0.023576754299011
   4  25
    -0.012593278743868    -0.021238183294651     0.012205860868005
    -0.025314209614136    -0.033468828614893    -0.020013595705891
     0.003507528142937    -0.015944893394042    -0.011068943734333
   4  26
    -0.012251689999889    -0.029670701870650     0.018470987443521
    -0.030586118179219    -0.019655553162133    -0.015566241454095
     0.016754543693979    -0.011174123615698    -0.011059036692682
   4  27
    -0.018861097930043     0.002448240209397     0.005161832089924
    -0.003840850022471     0.016649554355832     0.003144582906355
    -0.001257457706235     0.008778640584427     0.016266576981924
   4  28
     0.001575155767743     0.011230091324845    -0.014090276574211
     0.014985575110475    -0.044520611102425     0.001497259147273
    -0.020668130408568     0.012591423168195     0.012730950589780
   4  29
     0.076131988390668    -0.026640673951197    -0.020273356414501
    -0.003445508370628    -0.737321498747575    -0.806937131221424
    -0.006177316027793    -0.809313487503538    -0.742215033903546
   4  30
     0.009494858649672     0.008183595557559    -0.016053981848874
     0.007780541597413     0.014545218548192     0.000307218022371
    -0.010331515927804    -0.013840525745744    -0.042927738362471
   5   1
    -0.054393613421318     0.048046496393386    -0.003295948445958
    -0.008562802424105    -0.654395967649916     0.633550584701944
     0.031142682275116     0.681051030149565    -0.642608833467611
   5   2
     0.020649459867581     0.022974492012865     0.030643075390341
     0.022289242454431    -0.014745915092858     0.048031573128675
     0.016816174139815     0.046962529682998    -0.022023231045377
   5   3
     0.019852048154502     0.021545387692272     0.019232121078648
     0.024139194837777    -0.014393661973579     0.046595146899524
     0.028691708683014     0.048797774595516    -0.021857395587966
   5   4
    -0.055115310514574    -0.009121526525069     0.033412800653721
     0.048926748480533    -0.654247439080237     0.680823382466020
    -0.004842794956071     0.634552674306119    -0.642528552755820
   5   5
     6.306554060116151    -0.052136103848623    -0.098509497588111
    -0.072085584310611     6.155523617067340     0.327039568028404
    -0.028327599909822     0.305011926106129     6.144373391108941
   5   6
    -0.795167385939506    -0.869558851046773    -0.024970583747748
    -0.868864322062123    -0.819846451631803     0.014942383987556
    -0.027121854219642     0.015698010277639    -0.031635022088209
   5   7
    -0.025170723407460    -0.028106376275050    -0.038212727549982
    -0.027880951443596    -0.018621205227879     0.027642865301462
    -0.040702715021701     0.028617234360312    -0.028347935436740
   5   8
    -0.003991916590190    -0.004160501016736     0.005604830365159
    -0.004099731673489     0.008297598015507    -0.015735476558857
     0.002750833103664    -0.014665184959988    -0.022313725200428
   5   9
    -0.010827624628306     0.000592174378838    -0.004952517127492
     0.001209305354639    -0.027958413265257    -0.017951287677446
    -0.008322503914196    -0.017287964419963    -0.020829181769553
   5  10
    -0.816210453589969    -0.030251436236166    -0.855827239691464
    -0.029439905028389    -0.068712583159493     0.022990988018200
    -0.858583796370280     0.023970534110676    -0.824798414944464
   5  11
    -0.844631483699441    -0.017929866483021     0.951248140563260
    -0.005012190628624     0.083083457696719     0.000614551760596
     0.917777624407128     0.007469470639653    -0.868624294435412
   5  12
     0.012622288446223    -0.001619790913738     0.017391684296938
     0.009019567825886    -0.007606502791885     0.018390856922072
     0.010541579747140     0.015617803975502     0.000969742268818
   5  13
    -0.745319962113097    -0.008333397144530     0.785788335924871
    -0.006043452024479     0.070582856387785     0.008667200535530
     0.820017508837638     0.003244865197354    -0.744509312973339
   5  14
    -0.744996147519593     0.795986912660197    -0.008849658936986
     0.834399079347479    -0.757310264351102     0.004712822771295
     0.002012444506967     0.017726703451324     0.050518824894092
   5  15
    -0.852191143001198     0.959209965893797    -0.003754418480052
     0.924513184926462    -0.874887127129032     0.012317259565146
     0.003182885809164     0.006507172311251     0.072856941695553
   5  16
    -0.028097774311124    -0.005073033196963    -0.018141837106564
     0.004193649490774     0.005159184438153    -0.009668708573917
    -0.033210417834497    -0.009406424399080    -0.042950102914565
   5  17
    -0.017628037287756    -0.021409767641437    -0.017725463467870
    -0.025045368785209    -0.002335736048400     0.004143898514544
    -0.030353039183189     0.003774742241102    -0.005654358924440
   5  18
    -0.761238449203430    -0.801567746332625     0.026126820871527
    -0.797831407781459    -0.768250747522187     0.004168582507963
     0.002123599890822    -0.009916994695577     0.052802155060240
   5  19
    -0.739363670674764     0.019545889802496    -0.763168094302862
    -0.004068691753010     0.029986624504430    -0.007894693298966
    -0.757527138697622     0.011728988228943    -0.742300836343825
   5  20
    -0.003887638698219     0.018570389982737    -0.010137166112428
     0.007131325971534    -0.010010504821506    -0.012397237133255
    -0.005108134771943    -0.014689562392239    -0.006390058125287
   5  21
    -0.012593278743868    -0.021238183294651     0.012205860868005
    -0.025314209614136    -0.033468828614893    -0.020013595705891
     0.003507528142937    -0.015944893394042    -0.011068943734333
   5  22
     0.010318016901289    -0.003397817735705    -0.025420524020737
    -0.009202280625501     0.011107540648600    -0.005457380239975
    -0.008037624242643    -0.012905286061784    -0.076654694544053
   5  23
     0.104367211608595     0.010372122260847     0.012381652671326
     0.007814334719959    -0.831568257826766    -0.944847418611259