30
Lattice="-4.043521011801438 6.11596757027624 -2.0532402290894165 2.020494235445714 2.01385002109159 8.141146404691048 6.064005715390479 6.109271663232628 -0.0175504133726774" Properties=Z:I:1:pos:R:3:vasp_force:R:3 uuid=7af521ff-1130-4090-b2f0-e7ef2f78e821 vasp_virial="0.45843766517751405 0.10527878018341719 -0.11559782781004535 0.10527878018341719 -0.10046783040739943 0.3112797556122609 -0.11559782781004535 0.3112797556122609 -0.263653865074999" vasp_energy=-108.14502071 pbc="T T T"
      46       6.03684274       6.10079169       4.04861349       0.03459900      -0.04620600       0.01241400 
      46       1.99863437      10.16644875       4.04045738       0.00035300       0.00935100      -0.00785400 
      46       1.99863628       8.12417091       6.08284479      -0.00016200       0.00269900      -0.00192800 
      46      -0.02185605       4.06804304      -0.01591421       0.00062000       0.00305500      -0.00123100 
      46      -0.02185414       2.02576520       2.02647320       0.00007700       0.00926500      -0.00827300 
      46       4.06345142       6.10901075       2.02455385      -0.00661100      -0.00247600      -0.00694100 
      46       0.01993232      10.18270048       2.01370103       0.00257200      -0.00011700       0.00020100 
      46       0.01993422       8.14042263       4.05608844       0.00015600      -0.00175500      -0.00160000 
      46       0.01993613       6.09814479       6.09847585      -0.00060000      -0.00231700      -0.00047700 
      46       4.06344952       8.15128859      -0.01783356      -0.00067700      -0.00317000       0.00062700 
      47       4.03743458       8.12913485       4.04521944      -0.01013300       0.01213500      -0.00056700 
      47       4.03743649       6.08685700       6.08760685       0.00051500      -0.00119600       0.00326100 
      47      -0.00608262      10.16054673       6.07675403       0.00317800      -0.00035500      -0.00040000 
      47      -2.02657495       6.10441887      -0.02200496       0.00066300      -0.00116300       0.00134600 
      47       4.03743268      10.17141269       2.00283203      -0.00751200       0.00977900      -0.00015700 
      47       4.04171253      10.16586222       6.08124559      -0.00026000       0.00022200       0.00054400 
      47       2.02122020       6.10973436      -0.01751341      -0.00046200       0.00019500       0.00138700 
      47       2.02122211       4.06745652       2.02487400      -0.00008500      -0.00056400       0.00092500 
      47      -2.02229700       8.14114624       2.01402118       0.00150400       0.00149900       0.00125900 
      47       4.04171063      12.20814006       4.03885818      -0.00603300       0.00008500      -0.00544000 
      47       2.02451834       6.10409144       4.06199235      -0.00252200       0.00015600       0.00028900 
      47       2.02452025       4.06181360       6.10437976      -0.00188800       0.00044500       0.00004900 
      47       0.00402792       0.00568573       0.00562077      -0.00176300       0.00024900      -0.00036000 
      47       2.02451453      10.18864712      -0.02278247      -0.00172800       0.00543600       0.00515000 
      47       2.02451644       8.14636928       2.01960494      -0.00186700       0.00142100      -0.00079600 
      47       6.06344507       8.12899658       6.08662107       0.00017200       0.00310600       0.00547200 
      47       2.01992596      12.20268631       6.07576825      -0.00108800      -0.00054700       0.00069900 
      47      -0.00056637       8.14655845      -0.02299074      -0.00013000       0.00010800       0.00055200 
      47      -0.00056446       6.10428060       2.01939667      -0.00038700      -0.00003900       0.00046800 
      47      -0.00056255       4.06200276       4.06178408      -0.00050100       0.00069900       0.00138200 
30
Lattice="-4.043521011801438 6.11596757027624 -2.0532402290894165 2.020494235445714 2.01385002109159 8.141146404691048 6.064005715390479 6.109271663232628 -0.0175504133726774" Properties=Z:I:1:pos:R:3:vasp_force:R:3 uuid=fac706fc-56a8-436c-81a4-f12139a7a581 vasp_virial="0.4490512886236517 0.10944596709776155 -0.1229304438198374 0.10944596709776155 -0.10294867265482373 0.30715653299090884 -0.1229304438198374 0.30715653299090884 -0.27190031031770306" vasp_energy=-108.14500303 pbc="T T T"
      46       6.04215348       6.09275902       4.05131020      -0.00939800       0.00252900      -0.01014100 
      46       1.99863437      10.16644875       4.04045738       0.00042000       0.00187900      -0.00145600 
      46       1.99863628       8.12417091       6.08284479      -0.00013200       0.00217100      -0.00191700 
      46      -0.02185605       4.06804304      -0.01591421       0.00011600       0.00281600      -0.00122400 
      46      -0.02185414       2.02576520       2.02647320      -0.00336300      -0.00160700      -0.00145100 
      46       4.06110922       6.10667625       2.01511647       0.01425500       0.01531800       0.05902000 
      46       0.01993232      10.18270048       2.01370103      -0.00017400       0.00218800      -0.00384100 
      46       0.01993422       8.14042263       4.05608844       0.00055700      -0.00138700      -0.00118200 
      46       0.01993613       6.09814479       6.09847585      -0.00034900      -0.00175500      -0.00062500 
      46       4.06344952       8.15128859      -0.01783356      -0.00043200       0.00170100      -0.00410500 
      47       4.03743458       8.12913485       4.04521944       0.00246900      -0.01091900      -0.01048700 
      47       4.03743649       6.08685700       6.08760685       0.00240600      -0.00058300      -0.00027400 
      47      -0.00608262      10.16054673       6.07675403       0.00310200      -0.00076400      -0.00050200 
      47      -2.02657495       6.10441887      -0.02200496       0.00221100      -0.00050400      -0.00050300 
      47       4.03743268      10.17141269       2.00283203       0.00276500      -0.00050400      -0.00022100 
      47       4.04171253      10.16586222       6.08124559      -0.00020800      -0.00007000       0.00037200 
      47       2.02122020       6.10973436      -0.01751341      -0.00927400       0.00049500      -0.00749500 
      47       2.02122211       4.06745652       2.02487400      -0.00377100      -0.00431700       0.00162400 
      47      -2.02229700       8.14114624       2.01402118      -0.00125500      -0.00043500       0.00089100 
      47       4.04171063      12.20814006       4.03885818      -0.00054300       0.00004200      -0.00003900 
      47       2.02451834       6.10409144       4.06199235       0.00351700       0.00045800      -0.00497800 
      47       2.02452025       4.06181360       6.10437976      -0.00188300       0.00042200      -0.00008400 
      47       0.00402792       0.00568573       0.00562077       0.00488800       0.00058800      -0.00611400 
      47       2.02451453      10.18864712      -0.02278247      -0.00205800       0.00151000       0.00045000 
      47       2.02451644       8.14636928       2.01960494      -0.00147400       0.00112300      -0.00038000 
      47       6.06344507       8.12899658       6.08662107      -0.00031000      -0.00062200       0.00058900 
      47       2.01992596      12.20268631       6.07576825      -0.00092200      -0.01006700      -0.00821200 
      47      -0.00056637       8.14655845      -0.02299074      -0.00051100       0.00014800       0.00041700 
      47      -0.00056446       6.10428060       2.01939667      -0.00037400       0.00015000       0.00056400 
      47      -0.00056255       4.06200276       4.06178408      -0.00027500      -0.00000500       0.00130500 
30
Lattice="-4.043521011801438 6.11596757027624 -2.0532402290894165 2.020494235445714 2.01385002109159 8.141146404691048 6.064005715390479 6.109271663232628 -0.0175504133726774" Properties=Z:I:1:pos:R:3:vasp_force:R:3 uuid=5f0df64f-4d9f-4ea4-9aab-ad57b42eb6ab vasp_virial="0.4626550969981353 0.11475622562990646 -0.11926884627490486 0.11475622562990646 -0.09382294155227308 0.31546578436645906 -0.11926884627490486 0.31546578436645906 -0.2638862477665298" vasp_energy=-108.14498033 pbc="T T T"
      46       6.04215348       6.09275902       4.05131020       0.00646300       0.00327700       0.00537100 
      46       1.99863437      10.16644875       4.04045738       0.00060400       0.00234700      -0.00098900 
      46       1.99863628       8.12417091       6.08284479      -0.00005800       0.00231400      -0.00154700 
      46      -0.02185605       4.06804304      -0.01591421       0.00101900       0.00303200      -0.00079700 
      46      -0.02185414       2.02576520       2.02647320       0.01287300       0.01449000      -0.00098200 
      46       4.07049613       6.11610805       2.02453347      -0.04463400      -0.04633500      -0.00271100 
      46       0.01993232      10.18270048       2.01370103      -0.00002800       0.00253200      -0.00443300 
      46       0.01993422       8.14042263       4.05608844      -0.00010600      -0.00187400      -0.00153200 
      46       0.01993613       6.09814479       6.09847585      -0.00089300      -0.00223500      -0.00109700 
      46       4.06344952       8.15128859      -0.01783356      -0.00012700       0.00102300      -0.00395800 
      47       4.03743458       8.12913485       4.04521944       0.00131400       0.00558700       0.00605900 
      47       4.03743649       6.08685700       6.08760685       0.00249300      -0.00049500       0.00079900 
      47      -0.00608262      10.16054673       6.07675403       0.00344800      -0.00005800      -0.00026200 
      47      -2.02657495       6.10441887      -0.02200496       0.00269400      -0.00085400      -0.00087300 
      47       4.03743268      10.17141269       2.00283203       0.00261800       0.00013500      -0.00002500 
      47       4.04171253      10.16586222       6.08124559      -0.00017200       0.00002700       0.00070900 
      47       2.02122020       6.10973436      -0.01751341       0.00498900      -0.00003200       0.00688800 
      47       2.02122211       4.06745652       2.02487400       0.01068700       0.01037900       0.00089300 
      47      -2.02229700       8.14114624       2.01402118      -0.00054500      -0.00020700       0.00113700 
      47       4.04171063      12.20814006       4.03885818       0.00001200       0.00017300       0.00068800 
      47       2.02451834       6.10409144       4.06199235       0.00289700      -0.00009300      -0.00533400 
      47       2.02452025       4.06181360       6.10437976      -0.00216500       0.00040400      -0.00036700 
      47       0.00402792       0.00568573       0.00562077       0.00421000      -0.00008500      -0.00683600 
      47       2.02451453      10.18864712      -0.02278247      -0.00279400       0.00074200      -0.00025200 
      47       2.02451644       8.14636928       2.01960494      -0.00234500       0.00066400      -0.00075300 
      47       6.06344507       8.12899658       6.08662107      -0.00035400      -0.00066300       0.00120500 
      47       2.01992596      12.20268631       6.07576825      -0.00151600       0.00489000       0.00668300 
      47      -0.00056637       8.14655845      -0.02299074      -0.00045100       0.00038400       0.00047700 
      47      -0.00056446       6.10428060       2.01939667      -0.00012700      -0.00007300       0.00039500 
      47      -0.00056255       4.06200276       4.06178408      -0.00000800       0.00060500       0.00144500 
30
Lattice="-4.043521011801438 6.11596757027624 -2.0532402290894165 2.020494235445714 2.01385002109159 8.141146404691048 6.064005715390479 6.109271663232628 -0.0175504133726774" Properties=Z:I:1:pos:R:3:vasp_force:R:3 uuid=7d60e8b6-8bda-417a-9281-b90204182ff5 vasp_virial="0.44572256358280393 0.10730741827434896 -0.1165399198027381 0.10730741827434896 -0.10482971633356697 0.3076809642001745 -0.1165399198027381 0.3076809642001745 -0.27156429750697597" vasp_energy=-108.14501874 pbc="T T T"
      46       6.04215348       6.09275902       4.05131020      -0.00547800       0.00187300      -0.00637900 
      46       1.99863437      10.16644875       4.04045738       0.00041100       0.00195600      -0.00136700 
      46       1.99863628       8.12417091       6.08284479      -0.00023100       0.00237100      -0.00174500 
      46      -0.02185605       4.06804304      -0.01591421       0.00021200       0.00236800      -0.00099500 
      46      -0.02185414       2.02576520       2.02647320      -0.01072200      -0.00940400      -0.00117300 
      46       4.05640671       6.10191345       2.02457424       0.04493000       0.04039300       0.00175400 
      46       0.01993232      10.18270048       2.01370103      -0.00016900      -0.00691100       0.00567200 
      46       0.01993422       8.14042263       4.05608844       0.00045700      -0.00177900      -0.00065000 
      46       0.01993613       6.09814479       6.09847585      -0.00034500      -0.00212500      -0.00003500 
      46       4.06344952       8.15128859      -0.01783356      -0.00107400      -0.00761900       0.00496200 
      47       4.03743458       8.12913485       4.04521944       0.00283800      -0.00604200      -0.00720300 
      47       4.03743649       6.08685700       6.08760685       0.00245000      -0.00038700       0.00031400 
      47      -0.00608262      10.16054673       6.07675403       0.00285300      -0.00083500      -0.00042600 
      47      -2.02657495       6.10441887      -0.02200496       0.00202400      -0.00027900      -0.00061500 
      47       4.03743268      10.17141269       2.00283203       0.00310800      -0.00078000      -0.00035300 
      47       4.04171253      10.16586222       6.08124559      -0.00018400       0.00014300       0.00033700 
      47       2.02122020       6.10973436      -0.01751341      -0.00548600       0.00066400      -0.00397900 
      47       2.02122211       4.06745652       2.02487400      -0.01149000      -0.01189600       0.00125500 
      47      -2.02229700       8.14114624       2.01402118      -0.00120600      -0.00054500       0.00089400 
      47       4.04171063      12.20814006       4.03885818      -0.00038100       0.00017100       0.00024600 
      47       2.02451834       6.10409144       4.06199235      -0.00778600       0.00078900       0.00584100 
      47       2.02452025       4.06181360       6.10437976      -0.00191700       0.00027100       0.00008600 
      47       0.00402792       0.00568573       0.00562077      -0.00785400       0.00083700       0.00655700 
      47       2.02451453      10.18864712      -0.02278247      -0.00173500       0.00183700      -0.00018600 
      47       2.02451644       8.14636928       2.01960494      -0.00105700       0.00112500      -0.00086500 
      47       6.06344507       8.12899658       6.08662107      -0.00016800      -0.00034300       0.00093200 
      47       2.01992596      12.20268631       6.07576825      -0.00055300      -0.00586100      -0.00501700 
      47      -0.00056637       8.14655845      -0.02299074      -0.00027200      -0.00009100       0.00024600 
      47      -0.00056446       6.10428060       2.01939667      -0.00050300       0.00019500       0.00045900 
      47      -0.00056255       4.06200276       4.06178408      -0.00067400      -0.00009400       0.00143200 
30
Lattice="-4.043521011801438 6.11596757027624 -2.0532402290894165 2.020494235445714 2.01385002109159 8.141146404691048 6.064005715390479 6.109271663232628 -0.0175504133726774" Properties=Z:I:1:pos:R:3:vasp_force:R:3 uuid=3d83d9c2-c293-4637-ab10-ca01a1088c33 vasp_virial="0.450546074585391 0.11172268941343574 -0.11489439912216808 0.11172268941343574 -0.10330038699876237 0.3104350131254797 -0.11489439912216808 0.3104350131254797 -0.2676326335908048" vasp_energy=-108.14498768 pbc="T T T"
      46       6.04215348       6.09275902       4.05131020      -0.01154400       0.01428300      -0.00045200 
      46       1.99863437      10.16644875       4.04045738      -0.01017300       0.01294000      -0.00116500 
      46       1.99863628       8.12417091       6.08284479      -0.00194400       0.00177200       0.00066500 
      46      -0.02185605       4.06804304      -0.01591421       0.00071200       0.00285700      -0.00097300 
      46      -0.02185414       2.02576520       2.02647320      -0.00107000       0.00153800       0.00137900 
      46       4.06345142       6.10901075       2.02455385       0.00034000       0.00126600       0.00547500 
      46       0.01993232      10.18270048       2.01370103      -0.00009500      -0.00151000       0.00042900 
      46       0.01993422       8.14042263       4.05608844      -0.00010100      -0.00206900      -0.00107700 
      46       0.01993613       6.09814479       6.09847585      -0.00052200      -0.00209200      -0.00046500 
      46       4.06344952       8.15128859      -0.01783356      -0.00061600      -0.00348700       0.00041700 
      47       4.03212385       8.13716752       4.04252273       0.03512800      -0.04934300       0.01636000 
      47       4.03743649       6.08685700       6.08760685       0.00282100       0.00805300      -0.00838700 
      47      -0.00608262      10.16054673       6.07675403       0.00295600      -0.00044900      -0.00026400 
      47      -2.02657495       6.10441887      -0.02200496       0.00217900      -0.00055000      -0.00064000 
      47       4.03743268      10.17141269       2.00283203       0.00328800       0.00852900      -0.00924100 
      47       4.04171253      10.16586222       6.08124559       0.00051600       0.00403300       0.00557700 
      47       2.02122020       6.10973436      -0.01751341      -0.00018000       0.00012200       0.00134800 
      47       2.02122211       4.06745652       2.02487400      -0.00001300      -0.00048000       0.00117000 
      47      -2.02229700       8.14114624       2.01402118      -0.00123000      -0.00055600       0.00098800 
      47       4.04171063      12.20814006       4.03885818      -0.00028900       0.00073600       0.00036500 
      47       2.02451834       6.10409144       4.06199235       0.00129500       0.00187900       0.00056600 
      47       2.02452025       4.06181360       6.10437976      -0.00207200       0.00049600      -0.00034500 
      47       0.00402792       0.00568573       0.00562077      -0.00186800       0.00035700      -0.00001900 
      47       2.02451453      10.18864712      -0.02278247      -0.00243400       0.00147800      -0.00040800 
      47       2.02451644       8.14636928       2.01960494      -0.00927200      -0.00021300      -0.00879700 
      47       6.06344507       8.12899658       6.08662107      -0.00670500      -0.00168800      -0.00581600 
      47       2.01992596      12.20268631       6.07576825      -0.00127200       0.00001500       0.00095000 
      47      -0.00056637       8.14655845      -0.02299074      -0.00038400       0.00011300       0.00038400 
      47      -0.00056446       6.10428060       2.01939667      -0.00032900       0.00021500       0.00017900 
      47      -0.00056255       4.06200276       4.06178408       0.00287700       0.00175200       0.00179700 
30
Lattice="-4.043521011801438 6.11596757027624 -2.0532402290894165 2.020494235445714 2.01385002109159 8.141146404691048 6.064005715390479 6.109271663232628 -0.0175504133726774" Properties=Z:I:1:pos:R:3:vasp_force:R:3 uuid=b8c359b4-e3eb-4c82-aa64-e40f2e290aa4 vasp_virial="0.45601962906293597 0.10722891060829123 -0.12031770869343612 0.10722891060829123 -0.09513558972875837 0.31279338341385393 -0.12031770869343612 0.31279338341385393 -0.2674693376454047" vasp_energy=-108.14502619 pbc="T T T"
      46       6.04215348       6.09275902       4.05131020       0.01298400      -0.00964400      -0.00081800 
      46       1.99863437      10.16644875       4.04045738       0.01062100      -0.00809900      -0.00121800 
      46       1.99863628       8.12417091       6.08284479       0.00164500       0.00293500      -0.00402100 
      46      -0.02185605       4.06804304      -0.01591421       0.00049600       0.00256700      -0.00088500 
      46      -0.02185414       2.02576520       2.02647320       0.00252900       0.00293600      -0.00360600 
      46       4.06345142       6.10901075       2.02455385      -0.00062400      -0.00707600      -0.00539700 
      46       0.01993232      10.18270048       2.01370103      -0.00016500      -0.00272000       0.00060100 
      46       0.01993422       8.14042263       4.05608844       0.00042000      -0.00153800      -0.00117300 
      46       0.01993613       6.09814479       6.09847585      -0.00074800      -0.00223300      -0.00073400 
      46       4.06344952       8.15128859      -0.01783356      -0.00060100      -0.00316800       0.00066800 
      47       4.04274532       8.12110217       4.04791616      -0.02952100       0.04771800      -0.01689000 
      47       4.03743649       6.08685700       6.08760685       0.00203400      -0.00916900       0.00976800 
      47      -0.00608262      10.16054673       6.07675403       0.00331100      -0.00040500      -0.00048400 
      47      -2.02657495       6.10441887      -0.02200496       0.00251400      -0.00053900      -0.00091600 
      47       4.03743268      10.17141269       2.00283203       0.00247100      -0.00886300       0.00846600 
      47       4.04171253      10.16586222       6.08124559      -0.00087000      -0.00379400      -0.00452100 
      47       2.02122020       6.10973436      -0.01751341      -0.00023900       0.00050800       0.00163700 
      47       2.02122211       4.06745652       2.02487400      -0.00024800      -0.00042800       0.00090800 
      47      -2.02229700       8.14114624       2.01402118      -0.00055600      -0.00015500       0.00097000 
      47       4.04171063      12.20814006       4.03885818      -0.00010500      -0.00035200       0.00050300 
      47       2.02451834       6.10409144       4.06199235      -0.00610900      -0.00114700      -0.00028100 
      47       2.02452025       4.06181360       6.10437976      -0.00204100       0.00021700      -0.00000300 
      47       0.00402792       0.00568573       0.00562077      -0.00191700       0.00047800      -0.00015900 
      47       2.02451453      10.18864712      -0.02278247      -0.00208700       0.00110600      -0.00009800 
      47       2.02451644       8.14636928       2.01960494       0.00564800       0.00200300       0.00692400 
      47       6.06344507       8.12899658       6.08662107       0.00630700       0.00077800       0.00805200 
      47       2.01992596      12.20268631       6.07576825      -0.00086400      -0.00083700       0.00080500 
      47      -0.00056637       8.14655845      -0.02299074      -0.00037200       0.00021200       0.00027500 
      47      -0.00056446       6.10428060       2.01939667      -0.00033500      -0.00005600       0.00060600 
      47      -0.00056255       4.06200276       4.06178408      -0.00358100      -0.00123500       0.00101900 
30
Lattice="-4.043521011801438 6.11596757027624 -2.0532402290894165 2.020494235445714 2.01385002109159 8.141146404691048 6.064005715390479 6.109271663232628 -0.0175504133726774" Properties=Z:I:1:pos:R:3:vasp_force:R:3 uuid=b6472796-7792-487f-bba6-ed29d38fd53c vasp_virial="0.4483824033088399 0.11019964069191578 -0.11748829240871551 0.11019964069191578 -0.10243994297876964 0.31181988835473806 -0.11748829240871551 0.31181988835473806 -0.27339509627944225" vasp_energy=-108.14499783 pbc="T T T"
      46       6.04215348       6.09275902       4.05131020       0.00021800       0.00235700      -0.00134800 
      46       1.99863437      10.16644875       4.04045738       0.00049700       0.00190400      -0.00175300 
      46       1.99863628       8.12417091       6.08284479      -0.00586600       0.00209800       0.00344100 
      46      -0.02185605       4.06804304      -0.01591421       0.00043500       0.00251300      -0.00102000 
      46      -0.02185414       2.02576520       2.02647320      -0.00610600       0.00202700       0.00484300 
      46       4.06345142       6.10901075       2.02455385      -0.00047600       0.00769300       0.00986200 
      46       0.01993232      10.18270048       2.01370103      -0.00003100      -0.00196600       0.00048700 
      46       0.01993422       8.14042263       4.05608844       0.00007600      -0.00192200      -0.00136100 
      46       0.01993613       6.09814479       6.09847585      -0.00064500      -0.00186400      -0.00048800 
      46       4.06344952       8.15128859      -0.01783356      -0.00036100      -0.00330500       0.00129200 
      47       4.03977678       8.13146934       4.05465683      -0.01372700      -0.01571800      -0.05861500 
      47       4.03743649       6.08685700       6.08760685       0.00211500      -0.00688000       0.00539200 
      47      -0.00608262      10.16054673       6.07675403       0.00282700      -0.00049800      -0.00023400 
      47      -2.02657495       6.10441887      -0.02200496       0.00206000      -0.00064200      -0.00063200 
      47       4.03743268      10.17141269       2.00283203       0.00253600      -0.00687100       0.00462900 
      47       4.04171253      10.16586222       6.08124559      -0.00052900       0.01047400       0.01013700 
      47       2.02122020       6.10973436      -0.01751341      -0.00012100       0.00032300       0.00221300 
      47       2.02122211       4.06745652       2.02487400      -0.00013300      -0.00029400       0.00099900 
      47      -2.02229700       8.14114624       2.01402118      -0.00076200      -0.00044200       0.00075200 
      47       4.04171063      12.20814006       4.03885818      -0.00009500       0.00030900       0.00028800 
      47       2.02451834       6.10409144       4.06199235       0.00180100       0.00457700      -0.00142600 
      47       2.02452025       4.06181360       6.10437976      -0.00174200       0.00040700      -0.00006700 
      47       0.00402792       0.00568573       0.00562077      -0.00200200       0.00039700      -0.00006400 
      47       2.02451453      10.18864712      -0.02278247      -0.00213900       0.00126100       0.00002500 
      47       2.02451644       8.14636928       2.01960494       0.00965400       0.00037300       0.00941800 
      47       6.06344507       8.12899658       6.08662107       0.01033400      -0.00078200       0.01077900 
      47       2.01992596      12.20268631       6.07576825      -0.00091400      -0.00013800       0.00146000 
      47      -0.00056637       8.14655845      -0.02299074      -0.00047400       0.00024500       0.00049400 
      47      -0.00056446       6.10428060       2.01939667      -0.00004800       0.00013300       0.00051400 
      47      -0.00056255       4.06200276       4.06178408       0.00361900       0.00423000      -0.00001600 
30
Lattice="-4.043521011801438 6.11596757027624 -2.0532402290894165 2.020494235445714 2.01385002109159 8.141146404691048 6.064005715390479 6.109271663232628 -0.0175504133726774" Properties=Z:I:1:pos:R:3:vasp_force:R:3 uuid=75e6129e-ed86-4d94-bcdc-310934b36f86 vasp_virial="0.45816759880627544 0.11036607694395816 -0.11773951694010024 0.11036607694395816 -0.09712026352669778 0.3127808221872847 -0.11773951694010024 0.3127808221872847 -0.26202404592764045" vasp_energy=-108.14499381 pbc="T T T"
      46       6.04215348       6.09275902       4.05131020       0.00061700       0.00283200       0.00008300 
      46       1.99863437      10.16644875       4.04045738       0.00053800       0.00236200      -0.00069600 
      46       1.99863628       8.12417091       6.08284479       0.00541600       0.00256200      -0.00674300 
      46      -0.02185605       4.06804304      -0.01591421       0.00079700       0.00286700      -0.00087000 
      46      -0.02185414       2.02576520       2.02647320       0.00779500       0.00240200      -0.00720500 
      46       4.06345142       6.10901075       2.02455385       0.00027500      -0.01399700      -0.01011400 
      46       0.01993232      10.18270048       2.01370103      -0.00019700      -0.00230600       0.00051000 
      46       0.01993422       8.14042263       4.05608844       0.00026800      -0.00172600      -0.00092400 
      46       0.01993613       6.09814479       6.09847585      -0.00060000      -0.00250800      -0.00074500 
      46       4.06344952       8.15128859      -0.01783356      -0.00083300      -0.00339400      -0.00024300 
      47       4.03509238       8.12680035       4.03578206       0.01868400       0.01538100       0.05911000 
      47       4.03743649       6.08685700       6.08760685       0.00280900       0.00584000      -0.00429900 
      47      -0.00608262      10.16054673       6.07675403       0.00346500      -0.00040100      -0.00055200 
      47      -2.02657495       6.10441887      -0.02200496       0.00265500      -0.00049200      -0.00095200 
      47       4.03743268      10.17141269       2.00283203       0.00320400       0.00637400      -0.00518500 
      47       4.04171253      10.16586222       6.08124559       0.00014700      -0.00988000      -0.00884300 
      47       2.02122020       6.10973436      -0.01751341      -0.00027500       0.00025800       0.00074100 
      47       2.02122211       4.06745652       2.02487400      -0.00010400      -0.00066000       0.00104500 
      47      -2.02229700       8.14114624       2.01402118      -0.00100400      -0.00031900       0.00116900 
      47       4.04171063      12.20814006       4.03885818      -0.00027900       0.00002400       0.00054400 
      47       2.02451834       6.10409144       4.06199235      -0.00661500      -0.00395400       0.00173300 
      47       2.02452025       4.06181360       6.10437976      -0.00234400       0.00026100      -0.00031400 