30
Lattice="-8.08535969592288 2.0191235405618153 -2.0352423622299036 2.019483758329702 -8.08534710046734 2.033823659214733 2.022888055965861 2.023028422284393 8.13866803027856" Properties=Z:I:1:pos:R:3:vasp_force:R:3 uuid=50d0ddfd-4d27-43c7-a6f7-3dc7934ad7ad vasp_virial="0.1054254067381444 -0.21801180799794298 -0.10403679649611927 -0.21801180799794298 0.097987312863261 -0.021570160889573975 -0.10403679649611927 -0.021570160889573975 -0.3368158205880648" vasp_energy=-112.91576366 pbc="T T T"
      47       2.00049562      -4.02845852       6.10108266       0.06222700      -0.02056900       0.01781100 
      47      -4.05348038       0.01038586       4.06868567      -0.00547900      -0.00683200       0.00099500 
      47      -0.01203798      -6.05288672       6.10298223      -0.00512000      -0.00764500       0.00120000 
      47      -4.05394509       0.00990891      -0.00041190      -0.00041800      -0.00095200       0.00134400 
      47      -0.01250268      -6.05336367       2.03388466      -0.00036200      -0.00081500       0.00116900 
      47      -6.07590373      -2.01216561      -0.00088480       0.00027500      -0.00134100       0.00076600 
      47       0.01049262      -4.05358113       4.06856366      -0.00837200       0.00111500      -0.01102900 
      47      -6.05290843      -0.01238307       2.03379420       0.00024300       0.00491200      -0.00544000 
      47      -4.03094978       2.00969145       2.03426710      -0.00051500       0.00114800      -0.00131700 
      47      -4.03048508       2.01016840       6.10336466       0.00035500       0.00075000      -0.00081600 
      47       0.01095733      -4.05310418       8.13766122      -0.00451900       0.00109700       0.00447600 
      47       2.03291597      -2.03102966       8.13813413      -0.00008700       0.00097900      -0.00108700 
      47       0.03506836      -2.05571053       6.10341685      -0.01152100       0.01312400      -0.00031000 
      47      -6.02833269       1.98548753       4.06864739       0.00297200      -0.00164400      -0.00036700 
      47      -1.98689029      -4.07778505       6.10294395       0.00176100      -0.00145700      -0.00062600 
      47      -6.02879740       1.98501058      -0.00045017       0.00233300      -0.00207000      -0.00053500 
      47      -1.98735499      -4.07826200       2.03384639       0.00241200      -0.00190200      -0.00059100 
      47       0.03460365      -2.05618748       2.03431929       0.00269300      -0.00164900      -0.00092300 
      46      -4.04345266      -4.04367202       4.06815176      -0.00884500       0.00929600       0.00047600 
      46      -2.02149401      -2.02159750       4.06862466      -0.00047000       0.00004400      -0.00008500 
      46       0.00046463       0.00047702       4.06909756       0.00017500       0.00017200      -0.00025100 
      46      -2.02195872      -2.02207445      -0.00047290       0.00009900      -0.00003100       0.00037700 
      46       2.01948369      -8.08534703       2.03382366       0.00007900      -0.00011400      -0.00029300 
      46      -4.04391736      -4.04414897      -0.00094580      -0.00005800       0.00010900      -0.00010000 
      46       1.98534476      -6.02868260       4.06860194      -0.00188000       0.00139400       0.00039100 
      46      -4.07805629      -1.98748454       2.03383248      -0.00804600       0.00187800       0.00734200 
      46      -2.05609764       0.03458998       2.03430538      -0.00270700       0.00150000       0.00067200 
      46      -2.05563294       0.03506693       6.10340294      -0.00290900       0.00189300       0.00031900 
      46       1.98580946      -6.02820565       8.13769951      -0.00151600       0.00652300      -0.00342100 
      46      -4.07759159      -1.98700759       6.10293004      -0.01280000       0.00108700      -0.01014700 
30
Lattice="-8.08535969592288 2.0191235405618153 -2.0352423622299036 2.019483758329702 -8.08534710046734 2.033823659214733 2.022888055965861 2.023028422284393 8.13866803027856" Properties=Z:I:1:pos:R:3:vasp_force:R:3 uuid=f6f69e07-3532-48a4-82b6-32684e3ee79d vasp_virial="0.09320190043726861 -0.19365819967256082 -0.10233372519031718 -0.19365819967256082 0.08595995554276097 -0.024085849399789874 -0.10233372519031718 -0.024085849399789874 -0.32893872661424517" vasp_energy=-112.91576294 pbc="T T T"
      47       2.00992067      -4.03081220       6.10345513      -0.00408300      -0.00094900      -0.00221000 
      47      -4.05348038       0.01038586       4.06868567      -0.00048500      -0.00065600       0.00104100 
      47      -0.01203798      -6.05288672       6.10298223      -0.00011300       0.00739100      -0.00825100 
      47      -4.05394509       0.00990891      -0.00041190      -0.00003400      -0.00075900       0.00185300 
      47      -0.01250268      -6.05336367       2.03388466      -0.00054200       0.00371600       0.00697800 
      47      -6.07590373      -2.01216561      -0.00088480       0.00023300      -0.00140100       0.00149200 
      47       0.00813845      -4.04415581       4.06619277       0.02138000      -0.06290700       0.01499100 
      47      -6.05290843      -0.01238307       2.03379420       0.00621400       0.00627700      -0.00156200 
      47      -4.03094978       2.00969145       2.03426710       0.00609500       0.00642300      -0.00133200 
      47      -4.03048508       2.01016840       6.10336466       0.00028300       0.00124700      -0.00127900 
      47       0.01095733      -4.05310418       8.13766122       0.00015800       0.00089200      -0.00206300 
      47       2.03291597      -2.03102966       8.13813413      -0.00015900       0.00118000      -0.00123400 
      47       0.03506836      -2.05571053       6.10341685       0.00288300       0.00340000       0.00602000 
      47      -6.02833269       1.98548753       4.06864739       0.00282300      -0.00180900      -0.00031200 
      47      -1.98689029      -4.07778505       6.10294395       0.00309600      -0.00244900      -0.00065900 
      47      -6.02879740       1.98501058      -0.00045017       0.00248600      -0.00221500      -0.00083400 
      47      -1.98735499      -4.07826200       2.03384639      -0.00146900      -0.00293900      -0.00469000 
      47       0.03460365      -2.05618748       2.03431929       0.00307700       0.00916600      -0.01179400 
      46      -4.04345266      -4.04367202       4.06815176      -0.00020200      -0.00018400       0.00028300 
      46      -2.02149401      -2.02159750       4.06862466      -0.00987300       0.00922800       0.00021200 
      46       0.00046463       0.00047702       4.06909756      -0.00005100       0.00063500      -0.00028800 
      46      -2.02195872      -2.02207445      -0.00047290      -0.00008800      -0.00013800      -0.00000800 
      46       2.01948369      -8.08534703       2.03382366       0.00000000       0.00000100       0.00011200 
      46      -4.04391736      -4.04414897      -0.00094580      -0.00004600       0.00017900      -0.00013200 
      46       1.98534476      -6.02868260       4.06860194      -0.01764700       0.01553700       0.00078400 
      46      -4.07805629      -1.98748454       2.03383248      -0.00291100       0.00224200       0.00076900 
      46      -2.05609764       0.03458998       2.03430538      -0.00273500       0.00248800       0.00061100 
      46      -2.05563294       0.03506693       6.10340294      -0.00286900       0.00234100       0.00012700 
      46       1.98580946      -6.02820565       8.13769951      -0.00251400       0.00244400       0.00069100 
      46      -4.07759159      -1.98700759       6.10293004      -0.00291000       0.00161800       0.00068500 
30
Lattice="-8.08535969592288 2.0191235405618153 -2.0352423622299036 2.019483758329702 -8.08534710046734 2.033823659214733 2.022888055965861 2.023028422284393 8.13866803027856" Properties=Z:I:1:pos:R:3:vasp_force:R:3 uuid=3aa2a033-996c-42d3-a103-30dfe9835cfa vasp_virial="0.09975265368664271 -0.20606851452617542 -0.10745539301123942 -0.20606851452617542 0.09155175822140917 -0.017220635086638805 -0.10745539301123942 -0.017220635086638805 -0.3310621171637096" vasp_energy=-112.91575157 pbc="T T T"
      47       2.00992067      -4.03081220       6.10345513       0.00940500      -0.00119300       0.01090800 
      47      -4.05348038       0.01038586       4.06868567      -0.00021900      -0.00105200       0.00085200 
      47      -0.01203798      -6.05288672       6.10298223       0.00012400      -0.00762200       0.00657900 
      47      -4.05394509       0.00990891      -0.00041190      -0.00035200      -0.00081100       0.00120100 
      47      -0.01250268      -6.05336367       2.03388466      -0.00056400       0.00813500       0.01018400 
      47      -6.07590373      -2.01216561      -0.00088480      -0.00589800      -0.00125700       0.00641100 
      47       0.01283750      -4.05123610       4.07799777      -0.01377300      -0.01297800      -0.06527500 
      47      -6.05290843      -0.01238307       2.03379420       0.00403200       0.00494000      -0.00120600 
      47      -4.03094978       2.00969145       2.03426710       0.00362600       0.00500500      -0.00085700 
      47      -4.03048508       2.01016840       6.10336466       0.00058200       0.00102300      -0.00069900 
      47       0.01095733      -4.05310418       8.13766122      -0.00003400       0.00125200      -0.00059100 
      47       2.03291597      -2.03102966       8.13813413       0.00004000       0.00096200      -0.00026200 
      47       0.03506836      -2.05571053       6.10341685       0.00247900       0.00953300       0.01026300 
      47      -6.02833269       1.98548753       4.06864739       0.00283800      -0.00182700      -0.00038700 
      47      -1.98689029      -4.07778505       6.10294395      -0.00509100      -0.00189700       0.00573000 
      47      -6.02879740       1.98501058      -0.00045017       0.00264500      -0.00232900      -0.00077600 
      47      -1.98735499      -4.07826200       2.03384639       0.01415300      -0.00202200       0.01006900 
      47       0.03460365      -2.05618748       2.03431929       0.00229500      -0.00901400       0.00556300 
      46      -4.04345266      -4.04367202       4.06815176       0.00012800      -0.00009300       0.00014100 
      46      -2.02149401      -2.02159750       4.06862466      -0.00018200      -0.00018900      -0.00077100 
      46       0.00046463       0.00047702       4.06909756      -0.00011500       0.00014800      -0.00040200 
      46      -2.02195872      -2.02207445      -0.00047290       0.00001600      -0.00016700       0.00043800 
      46       2.01948369      -8.08534703       2.03382366       0.00005200       0.00003800      -0.00007700 
      46      -4.04391736      -4.04414897      -0.00094580      -0.00006200       0.00003300      -0.00004300 
      46       1.98534476      -6.02868260       4.06860194      -0.00328100       0.00157300      -0.00090200 
      46      -4.07805629      -1.98748454       2.03383248      -0.00217500       0.00220300       0.00054100 
      46      -2.05609764       0.03458998       2.03430538      -0.00269700       0.00156500       0.00033600 
      46      -2.05563294       0.03506693       6.10340294      -0.00308300       0.00190400       0.00077200 
      46       1.98580946      -6.02820565       8.13769951      -0.00238600       0.00251300       0.00115200 
      46      -4.07759159      -1.98700759       6.10293004      -0.00250400       0.00162400       0.00110800 
30
Lattice="-8.08535969592288 2.0191235405618153 -2.0352423622299036 2.019483758329702 -8.08534710046734 2.033823659214733 2.022888055965861 2.023028422284393 8.13866803027856" Properties=Z:I:1:pos:R:3:vasp_force:R:3 uuid=c37f6a44-508c-42ec-badb-67ceb7a6af36 vasp_virial="0.09928563230479569 -0.20600313153271682 -0.09931365358770651 -0.20600313153271682 0.0910660559842883 -0.027193098327011993 -0.09931365358770651 -0.027193098327011993 -0.333496855301072" vasp_energy=-112.91577075 pbc="T T T"
      47       2.00992067      -4.03081220       6.10345513      -0.00961600      -0.00119000      -0.00739900 
      47      -4.05348038       0.01038586       4.06868567      -0.00085000      -0.00106400       0.00145200 
      47      -0.01203798      -6.05288672       6.10298223      -0.00005200       0.00478200      -0.00398700 
      47      -4.05394509       0.00990891      -0.00041190      -0.00031200      -0.00156400       0.00191600 
      47      -0.01250268      -6.05336367       2.03388466      -0.00049400      -0.01070900      -0.00827400 
      47      -6.07590373      -2.01216561      -0.00088480       0.00614900      -0.00140500      -0.00403100 
      47       0.00814775      -4.05592617       4.05912955       0.01489100       0.01488200       0.06256600 
      47      -6.05290843      -0.01238307       2.03379420      -0.00333500      -0.00251500      -0.00190600 
      47      -4.03094978       2.00969145       2.03426710      -0.00375000      -0.00236200      -0.00157700 
      47      -4.03048508       2.01016840       6.10336466       0.00049800       0.00110700      -0.00157400 
      47       0.01095733      -4.05310418       8.13766122       0.00070000       0.00112300      -0.00251100 
      47       2.03291597      -2.03102966       8.13813413      -0.00011100       0.00171500      -0.00218200 
      47       0.03506836      -2.05571053       6.10341685       0.00245800      -0.01356300      -0.01129100 
      47      -6.02833269       1.98548753       4.06864739       0.00279500      -0.00212400      -0.00045600 
      47      -1.98689029      -4.07778505       6.10294395       0.01009300      -0.00123000      -0.00679600 
      47      -6.02879740       1.98501058      -0.00045017       0.00230700      -0.00221100      -0.00067800 
      47      -1.98735499      -4.07826200       2.03384639      -0.00902600      -0.00191700      -0.01133600 
      47       0.03460365      -2.05618748       2.03431929       0.00292200       0.00610200      -0.00683700 
      46      -4.04345266      -4.04367202       4.06815176      -0.00019800      -0.00004200       0.00044800 
      46      -2.02149401      -2.02159750       4.06862466       0.00021100       0.00016500       0.00078600 
      46       0.00046463       0.00047702       4.06909756       0.00019100      -0.00000900      -0.00015800 
      46      -2.02195872      -2.02207445      -0.00047290      -0.00009000       0.00003700       0.00014900 
      46       2.01948369      -8.08534703       2.03382366      -0.00005200      -0.00003400       0.00009200 
      46      -4.04391736      -4.04414897      -0.00094580       0.00013800       0.00011200      -0.00051600 
      46       1.98534476      -6.02868260       4.06860194      -0.00239700       0.00244200       0.00177500 
      46      -4.07805629      -1.98748454       2.03383248      -0.00277700       0.00234400       0.00093800 
      46      -2.05609764       0.03458998       2.03430538      -0.00249800       0.00155500       0.00086700 
      46      -2.05563294       0.03506693       6.10340294      -0.00254800       0.00206300       0.00010100 
      46       1.98580946      -6.02820565       8.13769951      -0.00256400       0.00202100       0.00032900 
      46      -4.07759159      -1.98700759       6.10293004      -0.00268100       0.00149200       0.00009000 
30
Lattice="-8.08535969592288 2.0191235405618153 -2.0352423622299036 2.019483758329702 -8.08534710046734 2.033823659214733 2.022888055965861 2.023028422284393 8.13866803027856" Properties=Z:I:1:pos:R:3:vasp_force:R:3 uuid=e1562c55-bf9e-410e-9895-2366e7b400e4 vasp_virial="0.08067950045201076 -0.1919831496496695 -0.10436059798753321 -0.1919831496496695 0.0736399314896368 -0.021526572227268254 -0.10436059798753321 -0.021526572227268254 -0.34212741043760475" vasp_energy=-112.91575969 pbc="T T T"
      47       2.00992067      -4.03081220       6.10345513      -0.01386500       0.01358100       0.00186800 
      47      -4.05348038       0.01038586       4.06868567      -0.00140300      -0.00094200       0.00104200 
      47      -0.01203798      -6.05288672       6.10298223       0.00016100      -0.00098600       0.00126900 
      47      -4.05394509       0.00990891      -0.00041190      -0.00051400      -0.00102500       0.00170200 
      47      -0.01250268      -6.05336367       2.03388466      -0.00049900      -0.00105700       0.00098400 
      47      -6.07590373      -2.01216561      -0.00088480      -0.00040500      -0.00122900       0.00110200 
      47       0.01049262      -4.05358113       4.06856366       0.00144400       0.00059900      -0.00108600 
      47      -6.05290843      -0.01238307       2.03379420      -0.00543700       0.00087000       0.00579300 
      47      -4.03094978       2.00969145       2.03426710      -0.00016900       0.00126800      -0.00119600 
      47      -4.03048508       2.01016840       6.10336466       0.00042800       0.00099100      -0.00128800 
      47       0.01095733      -4.05310418       8.13766122       0.00125400       0.00518000      -0.00591400 
      47       2.03291597      -2.03102966       8.13813413      -0.01009500       0.00091200      -0.01263100 
      47       0.02564331      -2.05335685       6.10104438       0.06301800      -0.01618900       0.01433400 
      47      -6.02833269       1.98548753       4.06864739      -0.00299200      -0.00968800      -0.00008500 
      47      -1.98689029      -4.07778505       6.10294395      -0.00313200      -0.00878800      -0.00023700 
      47      -6.02879740       1.98501058      -0.00045017       0.00249800      -0.00225100      -0.00071800 
      47      -1.98735499      -4.07826200       2.03384639       0.00295100      -0.00209900      -0.00066500 
      47       0.03460365      -2.05618748       2.03431929       0.00273400      -0.00165300      -0.00080500 
      46      -4.04345266      -4.04367202       4.06815176      -0.00063300       0.00012000       0.00011500 
      46      -2.02149401      -2.02159750       4.06862466      -0.00926400      -0.00001200      -0.00967400 
      46       0.00046463       0.00047702       4.06909756       0.00100800       0.00400600      -0.00404700 
      46      -2.02195872      -2.02207445      -0.00047290       0.00104600      -0.00019900       0.00059200 
      46       2.01948369      -8.08534703       2.03382366      -0.00022000      -0.00019500       0.00015100 
      46      -4.04391736      -4.04414897      -0.00094580      -0.00510700      -0.00007000       0.00580800 
      46       1.98534476      -6.02868260       4.06860194      -0.00269100       0.00199300       0.00053400 
      46      -4.07805629      -1.98748454       2.03383248      -0.00269500       0.00231300       0.00084300 
      46      -2.05609764       0.03458998       2.03430538      -0.00262800       0.00159600       0.00035900 
      46      -2.05563294       0.03506693       6.10340294      -0.00931400       0.00890300       0.00063000 
      46       1.98580946      -6.02820565       8.13769951      -0.00235800       0.00246200       0.00071100 
      46      -4.07759159      -1.98700759       6.10293004      -0.00312000       0.00159100       0.00051200 
30
Lattice="-8.08535969592288 2.0191235405618153 -2.0352423622299036 2.019483758329702 -8.08534710046734 2.033823659214733 2.022888055965861 2.023028422284393 8.13866803027856" Properties=Z:I:1:pos:R:3:vasp_force:R:3 uuid=b2bf8b87-df13-45fe-99e3-5b1ae3a20d1b vasp_virial="0.11905931761219817 -0.21992970913939472 -0.10233372519031718 -0.21992970913939472 0.10814658465637299 -0.02397065079226762 -0.10233372519031718 -0.02397065079226762 -0.32392603044908724" vasp_energy=-112.91580388 pbc="T T T"
      47       2.00992067      -4.03081220       6.10345513       0.01366200      -0.01656800       0.00118700 
      47      -4.05348038       0.01038586       4.06868567       0.00029600      -0.00118300       0.00122500 
      47      -0.01203798      -6.05288672       6.10298223      -0.00011200      -0.00168200       0.00118600 
      47      -4.05394509       0.00990891      -0.00041190      -0.00017600      -0.00134900       0.00138500 
      47      -0.01250268      -6.05336367       2.03388466      -0.00060300      -0.00107200       0.00129000 
      47      -6.07590373      -2.01216561      -0.00088480       0.00045600      -0.00144200       0.00135800 
      47       0.01049262      -4.05358113       4.06856366      -0.00039000       0.00155900      -0.00117800 
      47      -6.05290843      -0.01238307       2.03379420       0.00616600       0.00151500      -0.00909200 
      47      -4.03094978       2.00969145       2.03426710       0.00007500       0.00139700      -0.00129200 
      47      -4.03048508       2.01016840       6.10336466       0.00062400       0.00113400      -0.00101600 
      47       0.01095733      -4.05310418       8.13766122      -0.00065200      -0.00284700       0.00282700 
      47       2.03291597      -2.03102966       8.13813413       0.01039100       0.00178100       0.01063800 
      47       0.04449341      -2.05806421       6.10578932      -0.05770400       0.01205300      -0.01537400 
      47      -6.02833269       1.98548753       4.06864739       0.00868800       0.00589400      -0.00080600 
      47      -1.98689029      -4.07778505       6.10294395       0.00822300       0.00550300      -0.00094700 
      47      -6.02879740       1.98501058      -0.00045017       0.00243400      -0.00229600      -0.00076500 
      47      -1.98735499      -4.07826200       2.03384639       0.00265700      -0.00187000      -0.00021300 
      47       0.03460365      -2.05618748       2.03431929       0.00244100      -0.00146500      -0.00039300 
      46      -4.04345266      -4.04367202       4.06815176       0.00053800      -0.00027100       0.00044000 
      46      -2.02149401      -2.02159750       4.06862466       0.00890300      -0.00001200       0.00925000 
      46       0.00046463       0.00047702       4.06909756      -0.00091100      -0.00383000       0.00341600 
      46      -2.02195872      -2.02207445      -0.00047290      -0.00114100       0.00002400      -0.00006200 
      46       2.01948369      -8.08534703       2.03382366       0.00019800       0.00018900      -0.00016800 
      46      -4.04391736      -4.04414897      -0.00094580       0.00508200       0.00019000      -0.00624400 
      46       1.98534476      -6.02868260       4.06860194      -0.00296300       0.00196400       0.00030700 
      46      -4.07805629      -1.98748454       2.03383248      -0.00227900       0.00222300       0.00060200 
      46      -2.05609764       0.03458998       2.03430538      -0.00259100       0.00151400       0.00080800 
      46      -2.05563294       0.03506693       6.10340294       0.00340100      -0.00463500       0.00023100 
      46       1.98580946      -6.02820565       8.13769951      -0.00261900       0.00207000       0.00074300 
      46      -4.07759159      -1.98700759       6.10293004      -0.00209400       0.00151400       0.00065800 
30
Lattice="-8.08535969592288 2.0191235405618153 -2.0352423622299036 2.019483758329702 -8.08534710046734 2.033823659214733 2.022888055965861 2.023028422284393 8.13866803027856" Properties=Z:I:1:pos:R:3:vasp_force:R:3 uuid=3b982e1e-8774-4f49-8a19-5339e253e1c0 vasp_virial="0.11676157241351089 -0.21987366657357307 -0.1027229096751897 -0.21987366657357307 0.11029176953699027 -0.024422104794719728 -0.1027229096751897 -0.024422104794719728 -0.3239353708767242" vasp_energy=-112.91580353 pbc="T T T"
      47       2.00992067      -4.03081220       6.10345513       0.01507300      -0.01516800       0.00117400 
      47      -4.05348038       0.01038586       4.06868567      -0.00017600      -0.00097900       0.00111600 
      47      -0.01203798      -6.05288672       6.10298223       0.00010100      -0.00218400       0.00132600 
      47      -4.05394509       0.00990891      -0.00041190      -0.00025100      -0.00152000       0.00170500 
      47      -0.01250268      -6.05336367       2.03388466      -0.00058000      -0.00122000       0.00106700 
      47      -6.07590373      -2.01216561      -0.00088480       0.00027100      -0.00132600       0.00125000 
      47       0.01049262      -4.05358113       4.06856366       0.00013000      -0.00471200      -0.00854100 
      47      -6.05290843      -0.01238307       2.03379420      -0.00009800       0.00211200      -0.00165400 
      47      -4.03094978       2.00969145       2.03426710      -0.00007900       0.00121400      -0.00134100 
      47      -4.03048508       2.01016840       6.10336466       0.00047100       0.00104400      -0.00104300 
      47       0.01095733      -4.05310418       8.13766122      -0.00010100      -0.00928200       0.01037900 
      47       2.03291597      -2.03102966       8.13813413       0.00399700       0.00231500       0.00316700 
      47       0.03742253      -2.06513586       6.10578774      -0.01187100       0.05778700      -0.01556500 
      47      -6.02833269       1.98548753       4.06864739      -0.00423100      -0.00757700      -0.00079700 
      47      -1.98689029      -4.07778505       6.10294395      -0.00526400      -0.00739500      -0.00097800 
      47      -6.02879740       1.98501058      -0.00045017       0.00241600      -0.00234000      -0.00053100 
      47      -1.98735499      -4.07826200       2.03384639       0.00275400      -0.00177400      -0.00029800 
      47       0.03460365      -2.05618748       2.03431929       0.00252700      -0.00136100      -0.00048800 
      46      -4.04345266      -4.04367202       4.06815176       0.00016900      -0.00063400       0.00047600 
      46      -2.02149401      -2.02159750       4.06862466       0.00388000       0.00095900       0.00372100 
      46       0.00046463       0.00047702       4.06909756       0.00005400      -0.00888600       0.00896600 
      46      -2.02195872      -2.02207445      -0.00047290      -0.00012000      -0.00508000      -0.00571700 
      46       2.01948369      -8.08534703       2.03382366      -0.00020800      -0.00020800      -0.00017400 
      46      -4.04391736      -4.04414897      -0.00094580      -0.00006100       0.00119800      -0.00058500 
      46       1.98534476      -6.02868260       4.06860194      -0.00282700       0.00198100       0.00027800 
      46      -4.07805629      -1.98748454       2.03383248      -0.00239400       0.00224800       0.00064100 
      46      -2.05609764       0.03458998       2.03430538      -0.00255500       0.00155800       0.00082000 
      46      -2.05563294       0.03506693       6.10340294       0.00381200      -0.00421100       0.00021900 
      46       1.98580946      -6.02820565       8.13769951      -0.00245500       0.00171400       0.00076600 
      46      -4.07759159      -1.98700759       6.10293004      -0.00238200       0.00172700       0.00064200 
30
Lattice="-8.08535969592288 2.0191235405618153 -2.0352423622299036 2.019483758329702 -8.08534710046734 2.033823659214733 2.022888055965861 2.023028422284393 8.13866803027856" Properties=Z:I:1:pos:R:3:vasp_force:R:3 uuid=fec57097-d637-4944-beca-3fc676aa7ee9 vasp_virial="0.08256626683467268 -0.1919520148908797 -0.10436682493929118 -0.1919520148908797 0.07102461175129351 -0.021943777995051587 -0.10436682493929118 -0.021943777995051587 -0.34238271545968113" vasp_energy=-112.91576522 pbc="T T T"
      47       2.00992067      -4.03081220       6.10345513      -0.01513000       0.01231000       0.00190200 
      47      -4.05348038       0.01038586       4.06868567      -0.00091000      -0.00114500       0.00117500 
      47      -0.01203798      -6.05288672       6.10298223      -0.00003400      -0.00047800       0.00115000 
      47      -4.05394509       0.00990891      -0.00041190      -0.00041900      -0.00085300       0.00140800 
      47      -0.01250268      -6.05336367       2.03388466      -0.00050000      -0.00090200       0.00122600 
      47      -6.07590373      -2.01216561      -0.00088480      -0.00020400      -0.00133900       0.00122500 
      47       0.01049262      -4.05358113       4.06856366       0.00092300       0.00675500       0.00608200 
      47      -6.05290843      -0.01238307       2.03379420       0.00072000       0.00026300      -0.00140300 
      47      -4.03094978       2.00969145       2.03426710       0.00000100       0.00145800      -0.00112800 
      47      -4.03048508       2.01016840       6.10336466       0.00059500       0.00108800      -0.00124100 
      47       0.01095733      -4.05310418       8.13766122       0.00073200       0.01126400      -0.01298100 
      47       2.03291597      -2.03102966       8.13813413      -0.00404200       0.00039800      -0.00559900 
      47       0.03271419      -2.04628521       6.10104596       0.01668000      -0.06208500       0.01390100 
      47      -6.02833269       1.98548753       4.06864739       0.01002500       0.00369600      -0.00003700 
      47      -1.98689029      -4.07778505       6.10294395       0.01028600       0.00420100      -0.00022000 
      47      -6.02879740       1.98501058      -0.00045017       0.00253500      -0.00220000      -0.00093300 
      47      -1.98735499      -4.07826200       2.03384639       0.00287300      -0.00218500      -0.00055700 
      47       0.03460365      -2.05618748       2.03431929       0.00266700      -0.00175200      -0.00068700 
      46      -4.04345266      -4.04367202       4.06815176      -0.00024300       0.00049200       0.00010200 
      46      -2.02149401      -2.02159750       4.06862466      -0.00392400      -0.00100100      -0.00375700 
      46       0.00046463       0.00047702       4.06909756       0.00003800       0.00936800      -0.00994300 
      46      -2.02195872      -2.02207445      -0.00047290       0.00005400       0.00502100       0.00644700 