  30
   1   1
     6.409466974320980     0.047734004896771     0.017850165428245
     0.022608198939223     5.819891427539051     0.011893220212925
    -0.026774695317616     0.014902039319763     6.396988277371896
   1   2
     0.012013087761428     0.000035112495326     0.028417948500520
    -0.009851724769336     0.039801101621841    -0.005599157141080
     0.005233448080435    -0.010045748365294    -0.055208735188329
   1   3
     0.001566470427336    -0.002077039854905    -0.036707918192433
    -0.010763212342998     0.005737606464189    -0.014637154134758
    -0.017497705708418     0.015952109977865    -0.000527582417472
   1   4
     0.001553068866282    -0.011653558692450    -0.019050084245302
    -0.001230659786552     0.005763311076314     0.016058401932787
    -0.035119821681078    -0.014751534690853    -0.000529948027215
   1   5
     0.011995862529585    -0.010708133576792     0.003720491100170
     0.000858511718000     0.039813806850334    -0.009950290672437
     0.029967029104954    -0.005684770576188    -0.055215353487390
   1   6
    -0.712647340977266    -0.749348010397895    -0.000194292934109
    -0.748552988478816    -0.706589298559067    -0.006364086513009
     0.001466490512012    -0.006554559964599    -0.019079793998443
   1   7
    -0.027423910970907     0.031959411942447     0.043249285544431
     0.032840305440047    -0.004294479962687     0.025230279176713
     0.044782220592676     0.025137081110680    -0.018149371935790
   1   8
    -0.021377250219574     0.025800991629728    -0.015163881047327
     0.026709549050094    -0.029420752073300    -0.001065931309935
    -0.013584158783417    -0.001176146506720    -0.000205601370623
   1   9
     0.012583811412031    -0.010072027808517     0.012706648013438
    -0.009239169307701    -0.668123489539745     0.774281980167749
     0.014374763958517     0.774037869652229    -0.687430912119746
   1  10
     0.016892163239599    -0.002675746715394    -0.042112699776076
    -0.001528650121074    -0.675585173778956    -0.782792683883119
    -0.040371177389681    -0.782869162930441    -0.715194064268316
   1  11
    -0.858963199310873    -0.003716806646743     0.951096104572836
    -0.009881649425441     0.087737066507282     0.002648058970581
     0.990978857009156    -0.005238998765866    -0.877340111056743
   1  12
    -0.032824051680851    -0.039868501550533    -0.001892795622215
    -0.037521585028341    -0.006414563598450    -0.000078051278333
    -0.000474781872436     0.000552762957100     0.024611882251078
   1  13
    -0.000746891925201     0.014711947784242    -0.010424503169779
     0.009687211984897    -0.034958775276340     0.016605639405202
    -0.003696343384507     0.009771016665086    -0.031110167584792
   1  14
     0.010604733087219     0.014927544651676     0.006874422905647
     0.013445114500133    -0.067229290088771     0.016219061426115
     0.008898486943423     0.024866877833280    -0.001392350980709
   1  15
    -0.847627607530455    -0.006552487118376    -0.936985068377607
    -0.009749677308620     0.068690102631572    -0.036173720167220
    -0.981489252425523    -0.033850390021291    -0.907506428552806
   1  16
    -0.848389169676541     0.947733638760869     0.002602031919970
     0.941283495723301    -0.870673489991359    -0.011427570910824
     0.004857182953775    -0.014108480096102     0.076935343392763
   1  17
    -0.039861044262101    -0.017823989742382     0.019557894533924
    -0.028656729087497    -0.022022083855927    -0.009026326762283
     0.010162689573814    -0.005821246113444    -0.029433790061772
   1  18
    -0.038815188858979    -0.017867651351103     0.009162195924870
    -0.030420769808488    -0.027248075367881    -0.016125187756601
     0.003211749981204    -0.003554000859689    -0.038465479057643
   1  19
    -0.680559444820400     0.727172340861863    -0.002205438182880
     0.735225452016734    -0.686304039614610    -0.009914297979691
    -0.000646314763861    -0.006494593006874     0.061094558511575
   1  20
    -0.003066253343011    -0.008048771280669    -0.035682043235143
     0.003812576280429    -0.015988656323070     0.038403573738405
    -0.016161525294540     0.023215949661661    -0.033826501295348
   1  21
    -0.795511491776715    -0.014457829830375    -0.892038502559275
     0.007829303115707     0.100903268945197    -0.013756046971680
    -0.923639901025769    -0.018243574197035    -0.823892652028329
   1  22
    -0.000459778080499     0.007205679285684     0.007970731634418
     0.012943355736437    -0.036317869205813     0.004896371179643
     0.011641239870781     0.010155316208386     0.003836570976870
   1  23
     0.007812936399257     0.011681645135053    -0.000545013330370
     0.001585296905704     0.006862384367745    -0.002885800417253
    -0.007338602367668    -0.004940667738905     0.009946159929851
   1  24
    -0.029593384821359    -0.003209964260869    -0.004058271882859
    -0.004144973768471     0.017437790608154     0.001997042229713
     0.002736279517897     0.000741206197490     0.029269750577720
   1  25
    -0.809340176939716    -0.004079531099329     0.894529752625920
     0.009263453328715     0.089682262165200     0.009465122771469
     0.932288019192378     0.008026321700717    -0.835842101528923
   1  26
     0.080989153409512    -0.014866538272895     0.021974078887964
    -0.011936023518312    -0.759518470859146     0.838406855061365
     0.013123580307914     0.879576065710909    -0.767578136978669
   1  27
    -0.017608817358511     0.007325200881012    -0.006258436860308
     0.023696760490000    -0.008307596647909    -0.001029420971937
    -0.016588525598796    -0.004388692370568     0.000191710499198
   1  28
    -0.019731609924834     0.018768382291791     0.028515040904649
     0.030118197126357     0.000215504294097     0.008866010493252
     0.029157191219494     0.013299306866682    -0.012595107057376
   1  29
    -0.862105190172307    -0.925136788172347    -0.000872208209370
    -0.959780064315316    -0.890573188228563    -0.001359715288306
    -0.000292624005958    -0.000289157640109     0.083408756511313
   1  30
     0.081174489679962    -0.012893653665350    -0.044035665359823
     0.001350508840767    -0.772965138337814    -0.842786366136565
    -0.019204971363263    -0.882222622909357    -0.775757437649598
   2   1
     0.011995862529585    -0.010708133576792     0.003720491100170
     0.000858511718000     0.039813806850334    -0.009950290672437
     0.029967029104954    -0.005684770576188    -0.055215353487390
   2   2
     6.409466974320980     0.047734004896771     0.017850165428244
     0.022608198939223     5.819891427539051     0.011893220212924
    -0.026774695317617     0.014902039319763     6.396988277371896
   2   3
     0.012013087761428     0.000035112495326     0.028417948500521
    -0.009851724769336     0.039801101621841    -0.005599157141080
     0.005233448080435    -0.010045748365294    -0.055208735188329
   2   4
     0.001566470427336    -0.002077039854905    -0.036707918192433
    -0.010763212342998     0.005737606464189    -0.014637154134758
    -0.017497705708418     0.015952109977865    -0.000527582417472
   2   5
     0.001553068866282    -0.011653558692450    -0.019050084245302
    -0.001230659786552     0.005763311076314     0.016058401932787
    -0.035119821681078    -0.014751534690853    -0.000529948027215
   2   6
     0.016892163239599    -0.002675746715394    -0.042112699776076
    -0.001528650121074    -0.675585173778956    -0.782792683883119
    -0.040371177389681    -0.782869162930440    -0.715194064268316
   2   7
    -0.712647340977266    -0.749348010397895    -0.000194292934109
    -0.748552988478816    -0.706589298559067    -0.006364086513009
     0.001466490512012    -0.006554559964599    -0.019079793998443
   2   8
    -0.027423910970907     0.031959411942447     0.043249285544431
     0.032840305440047    -0.004294479962687     0.025230279176713
     0.044782220592676     0.025137081110680    -0.018149371935790
   2   9
    -0.021377250219574     0.025800991629728    -0.015163881047327
     0.026709549050094    -0.029420752073300    -0.001065931309935
    -0.013584158783417    -0.001176146506720    -0.000205601370623
   2  10
     0.012583811412031    -0.010072027808517     0.012706648013438
    -0.009239169307701    -0.668123489539745     0.774281980167749
     0.014374763958517     0.774037869652229    -0.687430912119746
   2  11
    -0.847627607530455    -0.006552487118376    -0.936985068377607
    -0.009749677308620     0.068690102631572    -0.036173720167220
    -0.981489252425523    -0.033850390021291    -0.907506428552806
   2  12
    -0.858963199310873    -0.003716806646743     0.951096104572836
    -0.009881649425441     0.087737066507282     0.002648058970581
     0.990978857009156    -0.005238998765866    -0.877340111056743
   2  13
    -0.032824051680851    -0.039868501550533    -0.001892795622215
    -0.037521585028341    -0.006414563598450    -0.000078051278333
    -0.000474781872436     0.000552762957100     0.024611882251078
   2  14
    -0.000746891925201     0.014711947784242    -0.010424503169779
     0.009687211984897    -0.034958775276340     0.016605639405202
    -0.003696343384507     0.009771016665086    -0.031110167584792
   2  15
     0.010604733087219     0.014927544651676     0.006874422905647
     0.013445114500133    -0.067229290088771     0.016219061426115
     0.008898486943423     0.024866877833280    -0.001392350980709
   2  16
    -0.003066253343011    -0.008048771280669    -0.035682043235143
     0.003812576280429    -0.015988656323070     0.038403573738405
    -0.016161525294540     0.023215949661661    -0.033826501295348
   2  17
    -0.848389169676541     0.947733638760869     0.002602031919970
     0.941283495723301    -0.870673489991359    -0.011427570910824
     0.004857182953775    -0.014108480096101     0.076935343392763
   2  18
    -0.039861044262101    -0.017823989742382     0.019557894533924
    -0.028656729087497    -0.022022083855927    -0.009026326762283
     0.010162689573814    -0.005821246113444    -0.029433790061772
   2  19
    -0.038815188858979    -0.017867651351103     0.009162195924870
    -0.030420769808488    -0.027248075367881    -0.016125187756601
     0.003211749981204    -0.003554000859689    -0.038465479057643
   2  20
    -0.680559444820400     0.727172340861863    -0.002205438182881
     0.735225452016734    -0.686304039614610    -0.009914297979691
    -0.000646314763861    -0.006494593006874     0.061094558511575
   2  21
    -0.809340176939716    -0.004079531099329     0.894529752625920
     0.009263453328715     0.089682262165200     0.009465122771469
     0.932288019192378     0.008026321700717    -0.835842101528923
   2  22
    -0.795511491776715    -0.014457829830375    -0.892038502559275
     0.007829303115707     0.100903268945197    -0.013756046971681
    -0.923639901025769    -0.018243574197035    -0.823892652028329
   2  23
    -0.000459778080499     0.007205679285684     0.007970731634418
     0.012943355736437    -0.036317869205813     0.004896371179643
     0.011641239870781     0.010155316208386     0.003836570976870
   2  24
     0.007812936399257     0.011681645135053    -0.000545013330370
     0.001585296905704     0.006862384367745    -0.002885800417253
    -0.007338602367668    -0.004940667738905     0.009946159929851
   2  25
    -0.029593384821359    -0.003209964260869    -0.004058271882859
    -0.004144973768471     0.017437790608154     0.001997042229713
     0.002736279517897     0.000741206197490     0.029269750577720
   2  26
     0.081174489679962    -0.012893653665350    -0.044035665359823
     0.001350508840768    -0.772965138337814    -0.842786366136565
    -0.019204971363263    -0.882222622909357    -0.775757437649598
   2  27
     0.080989153409512    -0.014866538272895     0.021974078887964
    -0.011936023518312    -0.759518470859146     0.838406855061365
     0.013123580307914     0.879576065710909    -0.767578136978669
   2  28
    -0.017608817358511     0.007325200881012    -0.006258436860308
     0.023696760490000    -0.008307596647909    -0.001029420971937
    -0.016588525598796    -0.004388692370568     0.000191710499198
   2  29
    -0.019731609924834     0.018768382291791     0.028515040904649
     0.030118197126357     0.000215504294097     0.008866010493252
     0.029157191219494     0.013299306866682    -0.012595107057376
   2  30
    -0.862105190172307    -0.925136788172347    -0.000872208209370
    -0.959780064315316    -0.890573188228563    -0.001359715288306
    -0.000292624005958    -0.000289157640109     0.083408756511313
   3   1
     0.001553068866282    -0.011653558692450    -0.019050084245302
    -0.001230659786552     0.005763311076314     0.016058401932787
    -0.035119821681078    -0.014751534690853    -0.000529948027215
   3   2
     0.011995862529585    -0.010708133576792     0.003720491100170
     0.000858511718000     0.039813806850334    -0.009950290672437
     0.029967029104954    -0.005684770576188    -0.055215353487390
   3   3
     6.409466974320980     0.047734004896771     0.017850165428244
     0.022608198939223     5.819891427539051     0.011893220212924
    -0.026774695317617     0.014902039319763     6.396988277371896
   3   4
     0.012013087761428     0.000035112495326     0.028417948500521
    -0.009851724769336     0.039801101621841    -0.005599157141080
     0.005233448080435    -0.010045748365294    -0.055208735188329
   3   5
     0.001566470427336    -0.002077039854905    -0.036707918192433
    -0.010763212342998     0.005737606464189    -0.014637154134758
    -0.017497705708418     0.015952109977865    -0.000527582417472
   3   6
     0.012583811412031    -0.010072027808517     0.012706648013438
    -0.009239169307701    -0.668123489539745     0.774281980167749
     0.014374763958517     0.774037869652229    -0.687430912119746
   3   7
     0.016892163239599    -0.002675746715394    -0.042112699776076
    -0.001528650121074    -0.675585173778956    -0.782792683883119
    -0.040371177389681    -0.782869162930440    -0.715194064268316
   3   8
    -0.712647340977266    -0.749348010397895    -0.000194292934109
    -0.748552988478816    -0.706589298559067    -0.006364086513009
     0.001466490512012    -0.006554559964599    -0.019079793998443
   3   9
    -0.027423910970907     0.031959411942447     0.043249285544431
     0.032840305440047    -0.004294479962687     0.025230279176713
     0.044782220592676     0.025137081110680    -0.018149371935790
   3  10
    -0.021377250219574     0.025800991629728    -0.015163881047327
     0.026709549050094    -0.029420752073300    -0.001065931309935
    -0.013584158783417    -0.001176146506720    -0.000205601370623
   3  11
     0.010604733087219     0.014927544651676     0.006874422905647
     0.013445114500133    -0.067229290088771     0.016219061426115
     0.008898486943423     0.024866877833280    -0.001392350980709
   3  12
    -0.847627607530455    -0.006552487118376    -0.936985068377607
    -0.009749677308620     0.068690102631572    -0.036173720167220
    -0.981489252425523    -0.033850390021291    -0.907506428552806
   3  13
    -0.858963199310873    -0.003716806646743     0.951096104572836
    -0.009881649425441     0.087737066507282     0.002648058970581
     0.990978857009156    -0.005238998765866    -0.877340111056743
   3  14
    -0.032824051680851    -0.039868501550533    -0.001892795622215
    -0.037521585028341    -0.006414563598450    -0.000078051278333
    -0.000474781872436     0.000552762957100     0.024611882251078
   3  15
    -0.000746891925201     0.014711947784242    -0.010424503169779
     0.009687211984897    -0.034958775276340     0.016605639405202
    -0.003696343384507     0.009771016665086    -0.031110167584792
   3  16
    -0.680559444820400     0.727172340861863    -0.002205438182881
     0.735225452016734    -0.686304039614610    -0.009914297979691
    -0.000646314763861    -0.006494593006874     0.061094558511575
   3  17
    -0.003066253343011    -0.008048771280669    -0.035682043235143
     0.003812576280429    -0.015988656323070     0.038403573738405
    -0.016161525294540     0.023215949661661    -0.033826501295348
   3  18
    -0.848389169676541     0.947733638760869     0.002602031919970
     0.941283495723301    -0.870673489991359    -0.011427570910824
     0.004857182953775    -0.014108480096101     0.076935343392763
   3  19
    -0.039861044262101    -0.017823989742382     0.019557894533924
    -0.028656729087497    -0.022022083855927    -0.009026326762283
     0.010162689573814    -0.005821246113444    -0.029433790061772
   3  20
    -0.038815188858979    -0.017867651351103     0.009162195924870
    -0.030420769808488    -0.027248075367881    -0.016125187756601
     0.003211749981204    -0.003554000859689    -0.038465479057643
   3  21
    -0.029593384821359    -0.003209964260869    -0.004058271882859
    -0.004144973768471     0.017437790608154     0.001997042229713
     0.002736279517897     0.000741206197490     0.029269750577720
   3  22
    -0.809340176939716    -0.004079531099329     0.894529752625920
     0.009263453328715     0.089682262165200     0.009465122771469
     0.932288019192378     0.008026321700717    -0.835842101528923
   3  23
    -0.795511491776715    -0.014457829830375    -0.892038502559275
     0.007829303115707     0.100903268945197    -0.013756046971681
    -0.923639901025769    -0.018243574197035    -0.823892652028329
   3  24
    -0.000459778080499     0.007205679285684     0.007970731634418
     0.012943355736437    -0.036317869205813     0.004896371179643
     0.011641239870781     0.010155316208386     0.003836570976870
   3  25
     0.007812936399257     0.011681645135053    -0.000545013330370
     0.001585296905704     0.006862384367745    -0.002885800417253
    -0.007338602367668    -0.004940667738905     0.009946159929851
   3  26
    -0.862105190172307    -0.925136788172347    -0.000872208209370
    -0.959780064315316    -0.890573188228563    -0.001359715288306
    -0.000292624005958    -0.000289157640109     0.083408756511313
   3  27
     0.081174489679962    -0.012893653665350    -0.044035665359823
     0.001350508840768    -0.772965138337814    -0.842786366136565
    -0.019204971363263    -0.882222622909357    -0.775757437649598
   3  28
     0.080989153409512    -0.014866538272895     0.021974078887964
    -0.011936023518312    -0.759518470859146     0.838406855061365
     0.013123580307914     0.879576065710909    -0.767578136978669
   3  29
    -0.017608817358511     0.007325200881012    -0.006258436860308
     0.023696760490000    -0.008307596647909    -0.001029420971937
    -0.016588525598796    -0.004388692370568     0.000191710499198
   3  30
    -0.019731609924834     0.018768382291791     0.028515040904649
     0.030118197126357     0.000215504294097     0.008866010493252
     0.029157191219494     0.013299306866682    -0.012595107057376
   4   1
     0.001566470427336    -0.002077039854905    -0.036707918192433
    -0.010763212342998     0.005737606464189    -0.014637154134758
    -0.017497705708418     0.015952109977865    -0.000527582417472
   4   2
     0.001553068866282    -0.011653558692450    -0.019050084245302
    -0.001230659786552     0.005763311076314     0.016058401932787
    -0.035119821681078    -0.014751534690853    -0.000529948027215
   4   3
     0.011995862529585    -0.010708133576792     0.003720491100170
     0.000858511718000     0.039813806850334    -0.009950290672437
     0.029967029104954    -0.005684770576188    -0.055215353487390
   4   4
     6.409466974320980     0.047734004896771     0.017850165428244
     0.022608198939223     5.819891427539051     0.011893220212924
    -0.026774695317617     0.014902039319763     6.396988277371896
   4   5
     0.012013087761428     0.000035112495326     0.028417948500521
    -0.009851724769336     0.039801101621841    -0.005599157141080
     0.005233448080435    -0.010045748365294    -0.055208735188329
   4   6
    -0.021377250219574     0.025800991629728    -0.015163881047327
     0.026709549050094    -0.029420752073300    -0.001065931309935
    -0.013584158783417    -0.001176146506720    -0.000205601370623
   4   7
     0.012583811412031    -0.010072027808517     0.012706648013438
    -0.009239169307701    -0.668123489539745     0.774281980167749
     0.014374763958517     0.774037869652229    -0.687430912119746
   4   8
     0.016892163239599    -0.002675746715394    -0.042112699776076
    -0.001528650121074    -0.675585173778956    -0.782792683883119
    -0.040371177389681    -0.782869162930440    -0.715194064268316
   4   9
    -0.712647340977266    -0.749348010397895    -0.000194292934109
    -0.748552988478816    -0.706589298559067    -0.006364086513009
     0.001466490512012    -0.006554559964599    -0.019079793998443
   4  10
    -0.027423910970907     0.031959411942447     0.043249285544431
     0.032840305440047    -0.004294479962687     0.025230279176713
     0.044782220592676     0.025137081110680    -0.018149371935790
   4  11
    -0.000746891925201     0.014711947784242    -0.010424503169779
     0.009687211984897    -0.034958775276340     0.016605639405202
    -0.003696343384507     0.009771016665086    -0.031110167584792
   4  12
     0.010604733087219     0.014927544651676     0.006874422905647
     0.013445114500133    -0.067229290088771     0.016219061426115
     0.008898486943423     0.024866877833280    -0.001392350980709
   4  13
    -0.847627607530455    -0.006552487118376    -0.936985068377607
    -0.009749677308620     0.068690102631572    -0.036173720167220
    -0.981489252425523    -0.033850390021291    -0.907506428552806
   4  14
    -0.858963199310873    -0.003716806646743     0.951096104572836
    -0.009881649425441     0.087737066507282     0.002648058970581
     0.990978857009156    -0.005238998765866    -0.877340111056743
   4  15
    -0.032824051680851    -0.039868501550533    -0.001892795622215
    -0.037521585028341    -0.006414563598450    -0.000078051278333
    -0.000474781872436     0.000552762957100     0.024611882251078
   4  16
    -0.038815188858979    -0.017867651351103     0.009162195924870
    -0.030420769808488    -0.027248075367881    -0.016125187756601
     0.003211749981204    -0.003554000859689    -0.038465479057643
   4  17
    -0.680559444820400     0.727172340861863    -0.002205438182881
     0.735225452016734    -0.686304039614610    -0.009914297979691
    -0.000646314763861    -0.006494593006874     0.061094558511575
   4  18
    -0.003066253343011    -0.008048771280669    -0.035682043235143
     0.003812576280429    -0.015988656323070     0.038403573738405
    -0.016161525294540     0.023215949661661    -0.033826501295348
   4  19
    -0.848389169676541     0.947733638760869     0.002602031919970
     0.941283495723301    -0.870673489991359    -0.011427570910824
     0.004857182953775    -0.014108480096101     0.076935343392763
   4  20
    -0.039861044262101    -0.017823989742382     0.019557894533924
    -0.028656729087497    -0.022022083855927    -0.009026326762283
     0.010162689573814    -0.005821246113444    -0.029433790061772
   4  21
     0.007812936399257     0.011681645135053    -0.000545013330370
     0.001585296905704     0.006862384367745    -0.002885800417253
    -0.007338602367668    -0.004940667738905     0.009946159929851
   4  22
    -0.029593384821359    -0.003209964260869    -0.004058271882859
    -0.004144973768471     0.017437790608154     0.001997042229713
     0.002736279517897     0.000741206197490     0.029269750577720
   4  23
    -0.809340176939716    -0.004079531099329     0.894529752625920
     0.009263453328715     0.089682262165200     0.009465122771469
     0.932288019192378     0.008026321700717    -0.835842101528923
   4  24
    -0.795511491776715    -0.014457829830375    -0.892038502559275
     0.007829303115707     0.100903268945197    -0.013756046971681
    -0.923639901025769    -0.018243574197035    -0.823892652028329
   4  25
    -0.000459778080499     0.007205679285684     0.007970731634418
     0.012943355736437    -0.036317869205813     0.004896371179643
     0.011641239870781     0.010155316208386     0.003836570976870
   4  26
    -0.019731609924834     0.018768382291791     0.028515040904649
     0.030118197126357     0.000215504294097     0.008866010493252
     0.029157191219494     0.013299306866682    -0.012595107057376
   4  27
    -0.862105190172307    -0.925136788172347    -0.000872208209370
    -0.959780064315316    -0.890573188228563    -0.001359715288306
    -0.000292624005958    -0.000289157640109     0.083408756511313
   4  28
     0.081174489679962    -0.012893653665350    -0.044035665359823
     0.001350508840768    -0.772965138337814    -0.842786366136565
    -0.019204971363263    -0.882222622909357    -0.775757437649598
   4  29
     0.080989153409512    -0.014866538272895     0.021974078887964
    -0.011936023518312    -0.759518470859146     0.838406855061365
     0.013123580307914     0.879576065710909    -0.767578136978669
   4  30
    -0.017608817358511     0.007325200881012    -0.006258436860308
     0.023696760490000    -0.008307596647909    -0.001029420971937
    -0.016588525598796    -0.004388692370568     0.000191710499198
   5   1
     0.012013087761428     0.000035112495326     0.028417948500521
    -0.009851724769336     0.039801101621841    -0.005599157141080
     0.005233448080435    -0.010045748365294    -0.055208735188329
   5   2
     0.001566470427336    -0.002077039854905    -0.036707918192433
    -0.010763212342998     0.005737606464189    -0.014637154134758
    -0.017497705708418     0.015952109977865    -0.000527582417472
   5   3
     0.001553068866282    -0.011653558692450    -0.019050084245302
    -0.001230659786552     0.005763311076314     0.016058401932787
    -0.035119821681078    -0.014751534690853    -0.000529948027215
   5   4
     0.011995862529585    -0.010708133576792     0.003720491100170
     0.000858511718000     0.039813806850334    -0.009950290672437
     0.029967029104954    -0.005684770576188    -0.055215353487390
   5   5
     6.409466974320980     0.047734004896771     0.017850165428244
     0.022608198939223     5.819891427539051     0.011893220212924
    -0.026774695317617     0.014902039319763     6.396988277371896
   5   6
    -0.027423910970907     0.031959411942447     0.043249285544431
     0.032840305440047    -0.004294479962687     0.025230279176713
     0.044782220592676     0.025137081110680    -0.018149371935790
   5   7
    -0.021377250219574     0.025800991629728    -0.015163881047327
     0.026709549050094    -0.029420752073300    -0.001065931309935
    -0.013584158783417    -0.001176146506720    -0.000205601370623
   5   8
     0.012583811412031    -0.010072027808517     0.012706648013438
    -0.009239169307701    -0.668123489539745     0.774281980167749
     0.014374763958517     0.774037869652229    -0.687430912119746
   5   9
     0.016892163239599    -0.002675746715394    -0.042112699776076
    -0.001528650121074    -0.675585173778956    -0.782792683883119
    -0.040371177389681    -0.782869162930440    -0.715194064268316
   5  10
    -0.712647340977266    -0.749348010397895    -0.000194292934109
    -0.748552988478816    -0.706589298559067    -0.006364086513009
     0.001466490512012    -0.006554559964599    -0.019079793998443
   5  11
    -0.032824051680851    -0.039868501550533    -0.001892795622215
    -0.037521585028341    -0.006414563598450    -0.000078051278333
    -0.000474781872436     0.000552762957100     0.024611882251078
   5  12
    -0.000746891925201     0.014711947784242    -0.010424503169779
     0.009687211984897    -0.034958775276340     0.016605639405202
    -0.003696343384507     0.009771016665086    -0.031110167584792
   5  13
     0.010604733087219     0.014927544651676     0.006874422905647
     0.013445114500133    -0.067229290088771     0.016219061426115
     0.008898486943423     0.024866877833280    -0.001392350980709
   5  14
    -0.847627607530455    -0.006552487118376    -0.936985068377607
    -0.009749677308620     0.068690102631572    -0.036173720167220
    -0.981489252425523    -0.033850390021291    -0.907506428552806
   5  15
    -0.858963199310873    -0.003716806646743     0.951096104572836
    -0.009881649425441     0.087737066507282     0.002648058970581
     0.990978857009156    -0.005238998765866    -0.877340111056743
   5  16
    -0.039861044262101    -0.017823989742382     0.019557894533924
    -0.028656729087497    -0.022022083855927    -0.009026326762283
     0.010162689573814    -0.005821246113444    -0.029433790061772
   5  17
    -0.038815188858979    -0.017867651351103     0.009162195924870
    -0.030420769808488    -0.027248075367881    -0.016125187756601
     0.003211749981204    -0.003554000859689    -0.038465479057643
   5  18
    -0.680559444820400     0.727172340861863    -0.002205438182881
     0.735225452016734    -0.686304039614610    -0.009914297979691
    -0.000646314763861    -0.006494593006874     0.061094558511575
   5  19
    -0.003066253343011    -0.008048771280669    -0.035682043235143
     0.003812576280429    -0.015988656323070     0.038403573738405
    -0.016161525294540     0.023215949661661    -0.033826501295348
   5  20
    -0.848389169676541     0.947733638760869     0.002602031919970
     0.941283495723301    -0.870673489991359    -0.011427570910824
     0.004857182953775    -0.014108480096101     0.076935343392763
   5  21
    -0.000459778080499     0.007205679285684     0.007970731634418
     0.012943355736437    -0.036317869205813     0.004896371179643
     0.011641239870781     0.010155316208386     0.003836570976870
   5  22
     0.007812936399257     0.011681645135053    -0.000545013330370
     0.001585296905704     0.006862384367745    -0.002885800417253
    -0.007338602367668    -0.004940667738905     0.009946159929851
   5  23
    -0.029593384821359    -0.003209964260869    -0.004058271882859
    -0.004144973768471     0.017437790608154     0.001997042229713