30
Lattice="-2.0316420172106553 -4.05805140130902 -6.106134123201233 -6.098251640795407 0.006085428360203 6.103130545122209 -2.0419329309364853 8.121302686638138 -2.035404463601998" Properties=Z:I:1:pos:R:3:vasp_force:R:3 uuid=4af8a374-e9e6-48d7-9ee6-4eeb3d8b1174 vasp_virial="-0.13708150377882422 0.266279806592237 -0.04189798629621497 0.266279806592237 -0.08650759239777098 0.008663342162307682 -0.04189798629621497 0.008663342162307682 0.2974319770473325" vasp_energy=-108.20121173 pbc="T T T"
      46      -8.13978551       0.00196242      -0.01105352       0.02010000       0.02880100       0.05240200 
      46      -2.03747037       0.00138809      -2.03599737       0.00389300      -0.00169200       0.00039500 
      46      -2.03607730       0.00156520       2.03416328       0.00287700      -0.00133800       0.00060600 
      46      -6.10825918       4.06499360      -2.03721466       0.00363500      -0.00165300       0.00137400 
      46      -6.10686612       4.06517070       2.03294599       0.00384200      -0.00067800      -0.00030200 
      46      -2.03208604       2.03227070      -0.00031446      -0.00904900      -0.00467000      -0.00239500 
      46      -4.06233499      -2.02560359      -2.03628793      -0.00252600       0.00166500      -0.00089000 
      46      -6.10287486       6.09587621      -0.00153174      -0.00187700       0.00072400      -0.00193500 
      46      -8.13312381       2.03800191      -2.03750521      -0.00192100       0.00368000      -0.00197400 
      46      -8.13173075       2.03817902       2.03265544      -0.00373500      -0.00894500      -0.01144600 
      47      -4.03700846       0.00487582      -4.07120414       0.00503000       0.00125300      -0.00639700 
      47      -4.03561540       0.00505292      -0.00104349      -0.00147300       0.00060300      -0.00199500 
      47      -8.10779728       4.06848132      -4.07242143      -0.00099700       0.00175900      -0.00317700 
      47      -8.10640421       4.06865843      -0.00226077      -0.00147700       0.00094700      -0.00206400 
      47      -2.00675951       4.06275011      -2.03523067      -0.01200300       0.00197400      -0.01227300 
      47      -4.04542842       2.03368813      -6.10634084       0.00202000      -0.00166900      -0.00183600 
      47      -4.04403535       2.03386524      -2.03618019      -0.00109600       0.00086500      -0.00290700 
      47      -4.04264229       2.03404235       2.03398046      -0.00140100       0.00115500      -0.00300900 
      47      -6.07289124      -2.02383194      -0.00199301       0.00122600      -0.00021700      -0.00212300 
      47      -8.11343111       6.09764786       2.03276318      -0.00182800       0.00015300      -0.00251600 
      47      -6.12505732       0.00561951       2.03269441      -0.00907100      -0.00037400      -0.00565200 
      47      -0.02541262      -0.00028881      -0.00027549       0.00047500      -0.00048600       0.00323800 
      47      -4.09759450       4.06313959      -4.07165342       0.00031000      -0.00032500       0.00293100 
      47      -4.09620144       4.06331669      -0.00149277       0.00009700       0.00044300       0.00332300 
      47      -6.12645039       0.00544240      -2.03746624       0.00537900       0.00042200      -0.00148000 
      47      -2.06424324      -2.02920009      -4.07133981       0.00140300       0.00191300       0.00046200 
      47      -4.10478311       6.09227970      -2.03658363       0.00100200      -0.00208100       0.00252900 
      47      -6.13503206       2.03440541      -4.07255710       0.00158300      -0.00112200       0.00261100 
      47      -6.13363899       2.03458252      -0.00239645      -0.00576100      -0.00841700       0.00318100 
      47      -6.13224593       2.03475963       4.06776420       0.00134400      -0.01269100      -0.00868000 
30
Lattice="-2.0316420172106553 -4.05805140130902 -6.106134123201233 -6.098251640795407 0.006085428360203 6.103130545122209 -2.0419329309364853 8.121302686638138 -2.035404463601998" Properties=Z:I:1:pos:R:3:vasp_force:R:3 uuid=8abd086b-4835-4fbe-bed4-c7206498b4f9 vasp_virial="-0.13341358186115873 0.2621242964265113 -0.047472220977264064 0.2621242964265113 -0.08467992290020351 -0.0005756687057742577 -0.047472220977264064 -0.0005756687057742577 0.2961548104104781" vasp_energy=-108.20120774 pbc="T T T"
      46      -8.13711507       0.00729641      -0.00302748       0.00802900       0.00270800       0.00117000 
      46      -2.03747037       0.00138809      -2.03599737       0.00345200      -0.00741200      -0.00402800 
      46      -2.03607730       0.00156520       2.03416328       0.00309700       0.00398200      -0.00410900 
      46      -6.10825918       4.06499360      -2.03721466       0.00397600      -0.00171800       0.00144500 
      46      -6.10686612       4.06517070       2.03294599       0.00407600      -0.00086000      -0.00026200 
      46      -2.02501780       2.03226365      -0.00738835      -0.04843700       0.00097000       0.04263900 
      46      -4.06233499      -2.02560359      -2.03628793      -0.00285900       0.00144500      -0.00142300 
      46      -6.10287486       6.09587621      -0.00153174      -0.00211700       0.00080900      -0.00176000 
      46      -8.13312381       2.03800191      -2.03750521      -0.00215600       0.00118700      -0.00037500 
      46      -8.13173075       2.03817902       2.03265544      -0.00349200       0.00062100      -0.00225700 
      47      -4.03700846       0.00487582      -4.07120414      -0.00121300      -0.00521900      -0.00706000 
      47      -4.03561540       0.00505292      -0.00104349       0.00484900       0.00719800      -0.00161500 
      47      -8.10779728       4.06848132      -4.07242143      -0.00067200       0.00179600      -0.00328200 
      47      -8.10640421       4.06865843      -0.00226077      -0.00164200       0.00099100      -0.00211300 
      47      -2.00675951       4.06275011      -2.03523067      -0.00211100       0.00826900      -0.00776500 
      47      -4.04542842       2.03368813      -6.10634084      -0.00068600       0.00059100      -0.00242300 
      47      -4.04403535       2.03386524      -2.03618019      -0.00181200       0.00106000      -0.00218200 
      47      -4.04264229       2.03404235       2.03398046       0.01084500       0.00146900      -0.01456500 
      47      -6.07289124      -2.02383194      -0.00199301      -0.00065000       0.00158300      -0.00232800 
      47      -8.11343111       6.09764786       2.03276318      -0.00181600      -0.00003600      -0.00228000 
      47      -6.12505732       0.00561951       2.03269441       0.00058500      -0.00061000       0.00289800 
      47      -0.02541262      -0.00028881      -0.00027549       0.00640300      -0.00727000       0.00370200 
      47      -4.09759450       4.06313959      -4.07165342       0.00025000      -0.00012300       0.00288100 
      47      -4.09620144       4.06331669      -0.00149277       0.00493400      -0.00476400       0.00351700 
      47      -6.12645039       0.00544240      -2.03746624       0.00025900      -0.00001200       0.00246800 
      47      -2.06424324      -2.02920009      -4.07133981       0.00018000      -0.00123900       0.00228400 
      47      -4.10478311       6.09227970      -2.03658363       0.00104300      -0.00194300       0.00248900 
      47      -6.13503206       2.03440541      -4.07255710       0.00122000      -0.00130900       0.00244000 
      47      -6.13363899       2.03458252      -0.00239645       0.00179300      -0.00099000       0.00273300 
      47      -6.13224593       2.03475963       4.06776420       0.01467200      -0.00117600      -0.01084000 
30
Lattice="-2.0316420172106553 -4.05805140130902 -6.106134123201233 -6.098251640795407 0.006085428360203 6.103130545122209 -2.0419329309364853 8.121302686638138 -2.035404463601998" Properties=Z:I:1:pos:R:3:vasp_force:R:3 uuid=c82f1a9e-03b6-4e5a-88d1-9a4d241a9a99 vasp_virial="-0.14076515434965292 0.27052025148504405 -0.0449084505116574 0.27052025148504405 -0.08997104182431445 0.0012236892160993787 -0.0449084505116574 0.0012236892160993787 0.2953369204459901" vasp_energy=-108.20126433 pbc="T T T"
      46      -8.13711507       0.00729641      -0.00302748       0.00840300       0.00229000       0.00127900 
      46      -2.03747037       0.00138809      -2.03599737       0.00385200       0.00265500       0.00627200 
      46      -2.03607730       0.00156520       2.03416328       0.00323500       0.00643200      -0.00792000 
      46      -6.10825918       4.06499360      -2.03721466       0.00360600      -0.00120000       0.00128000 
      46      -6.10686612       4.06517070       2.03294599       0.00331900      -0.00064300      -0.00003500 
      46      -2.03445545       2.04169448      -0.00267629       0.01128700      -0.05328800       0.01344500 
      46      -4.06233499      -2.02560359      -2.03628793      -0.00287600       0.00098400      -0.00106300 
      46      -6.10287486       6.09587621      -0.00153174      -0.00190200       0.00070600      -0.00211700 
      46      -8.13312381       2.03800191      -2.03750521      -0.00193100       0.00103000      -0.00061400 
      46      -8.13173075       2.03817902       2.03265544      -0.00328300       0.00028700      -0.00171100 
      47      -4.03700846       0.00487582      -4.07120414      -0.00036200       0.00606800       0.00412200 
      47      -4.03561540       0.00505292      -0.00104349       0.00575500       0.00689100      -0.00202200 
      47      -8.10779728       4.06848132      -4.07242143      -0.00125700       0.00190100      -0.00306900 
      47      -8.10640421       4.06865843      -0.00226077      -0.00192900       0.00115100      -0.00219500 
      47      -2.00675951       4.06275011      -2.03523067      -0.00123800       0.01124700      -0.01204300 
      47      -4.04542842       2.03368813      -6.10634084      -0.00084700       0.00094400      -0.00244400 
      47      -4.04403535       2.03386524      -2.03618019      -0.00505800       0.00002800      -0.00666200 
      47      -4.04264229       2.03404235       2.03398046      -0.00092700       0.00054100      -0.00263200 
      47      -6.07289124      -2.02383194      -0.00199301      -0.00088100       0.00137800      -0.00255500 
      47      -8.11343111       6.09764786       2.03276318      -0.00170000       0.00002500      -0.00233800 
      47      -6.12505732       0.00561951       2.03269441       0.00045400      -0.00054900       0.00327600 
      47      -0.02541262      -0.00028881      -0.00027549      -0.01028400       0.00980800       0.00340700 
      47      -4.09759450       4.06313959      -4.07165342       0.00028300      -0.00016700       0.00230900 
      47      -4.09620144       4.06331669      -0.00149277      -0.00855800       0.00870200       0.00329700 
      47      -6.12645039       0.00544240      -2.03746624       0.00018600       0.00008300       0.00285600 
      47      -2.06424324      -2.02920009      -4.07133981      -0.00304000      -0.00177400      -0.00193000 
      47      -4.10478311       6.09227970      -2.03658363       0.00099900      -0.00129200       0.00237700 
      47      -6.13503206       2.03440541      -4.07255710       0.00116200      -0.00089700       0.00230200 
      47      -6.13363899       2.03458252      -0.00239645       0.00186200      -0.00131900       0.00256900 
      47      -6.13224593       2.03475963       4.06776420       0.00167100      -0.00202200       0.00255900 
30
Lattice="-2.0316420172106553 -4.05805140130902 -6.106134123201233 -6.098251640795407 0.006085428360203 6.103130545122209 -2.0419329309364853 8.121302686638138 -2.035404463601998" Properties=Z:I:1:pos:R:3:vasp_force:R:3 uuid=6cdd1fe2-3078-4efd-abec-eeef1b0d8e39 vasp_virial="-0.12923290585037192 0.2651693636789129 -0.044087414816536726 0.2651693636789129 -0.07906793945156268 0.004142927243195068 -0.044087414816536726 0.004142927243195068 0.29612335310415167" vasp_energy=-108.20121062 pbc="T T T"
      46      -8.13711507       0.00729641      -0.00302748      -0.00236400      -0.00744800       0.00126500 
      46      -2.03747037       0.00138809      -2.03599737       0.00390500      -0.00637100      -0.00488900 
      46      -2.03607730       0.00156520       2.03416328       0.00290500      -0.00977000       0.00987300 
      46      -6.10825918       4.06499360      -2.03721466       0.00424600      -0.00187300       0.00134700 
      46      -6.10686612       4.06517070       2.03294599       0.00382700      -0.00099700       0.00033600 
      46      -2.02971663       2.02284692       0.00204738      -0.01768400       0.05616100      -0.01703500 
      46      -4.06233499      -2.02560359      -2.03628793      -0.00308700       0.00180900      -0.00099300 
      46      -6.10287486       6.09587621      -0.00153174      -0.00179600       0.00093700      -0.00170700 
      46      -8.13312381       2.03800191      -2.03750521      -0.00208700       0.00107000      -0.00070000 
      46      -8.13173075       2.03817902       2.03265544      -0.00358000       0.00108200      -0.00167600 
      47      -4.03700846       0.00487582      -4.07120414      -0.00066000      -0.00427800      -0.00787800 
      47      -4.03561540       0.00505292      -0.00104349      -0.00827800      -0.00551200      -0.00242300 
      47      -8.10779728       4.06848132      -4.07242143      -0.00076300       0.00175100      -0.00296300 
      47      -8.10640421       4.06865843      -0.00226077      -0.00135000       0.00097800      -0.00217100 
      47      -2.00675951       4.06275011      -2.03523067      -0.00193800      -0.00714500       0.00728600 
      47      -4.04542842       2.03368813      -6.10634084      -0.00068500       0.00017500      -0.00239300 
      47      -4.04403535       2.03386524      -2.03618019       0.00319000       0.00208200       0.00121000 
      47      -4.04264229       2.03404235       2.03398046      -0.00135100       0.00221300      -0.00273200 
      47      -6.07289124      -2.02383194      -0.00199301      -0.00086100       0.00171600      -0.00262200 
      47      -8.11343111       6.09764786       2.03276318      -0.00170100       0.00012000      -0.00242200 
      47      -6.12505732       0.00561951       2.03269441       0.00002500      -0.00085400       0.00316700 
      47      -0.02541262      -0.00028881      -0.00027549       0.01140800      -0.01101300       0.00282900 
      47      -4.09759450       4.06313959      -4.07165342       0.00041700      -0.00054200       0.00337600 
      47      -4.09620144       4.06331669      -0.00149277       0.00851300      -0.00766300       0.00284700 
      47      -6.12645039       0.00544240      -2.03746624      -0.00024800      -0.00033200       0.00270500 
      47      -2.06424324      -2.02920009      -4.07133981       0.00540400      -0.00029000       0.00613300 
      47      -4.10478311       6.09227970      -2.03658363       0.00113100      -0.00275000       0.00267100 
      47      -6.13503206       2.03440541      -4.07255710       0.00133600      -0.00167400       0.00282500 
      47      -6.13363899       2.03458252      -0.00239645       0.00128300      -0.00125600       0.00247500 
      47      -6.13224593       2.03475963       4.06776420       0.00084400      -0.00032900       0.00226200 
30
Lattice="-2.0316420172106553 -4.05805140130902 -6.106134123201233 -6.098251640795407 0.006085428360203 6.103130545122209 -2.0419329309364853 8.121302686638138 -2.035404463601998" Properties=Z:I:1:pos:R:3:vasp_force:R:3 uuid=1e83f88c-f164-4e54-a004-4e887f6c61e0 vasp_virial="-0.13530102024074644 0.26524171548346376 -0.05100487647772577 0.26524171548346376 -0.083324112997533 0.003296725703013236 -0.05100487647772577 0.003296725703013236 0.29413210561368663" vasp_energy=-108.20123835 pbc="T T T"
      46      -8.13711507       0.00729641      -0.00302748       0.00832200      -0.00213500      -0.00315800 
      46      -2.03747037       0.00138809      -2.03599737      -0.00572800      -0.00178700      -0.00913800 
      46      -2.03607730       0.00156520       2.03416328       0.00326000      -0.00167300       0.00092200 
      46      -6.10825918       4.06499360      -2.03721466       0.00393600      -0.00155000       0.00112000 
      46      -6.10686612       4.06517070       2.03294599       0.00328000      -0.00094300       0.00036400 
      46      -2.03208604       2.03227070      -0.00031446      -0.00323600      -0.00992300      -0.01349000 
      46      -4.06233499      -2.02560359      -2.03628793      -0.00265300       0.00405100      -0.00245400 
      46      -6.10287486       6.09587621      -0.00153174      -0.00188900       0.00084300      -0.00196900 
      46      -8.13312381       2.03800191      -2.03750521      -0.00172100       0.00121600      -0.00059700 
      46      -8.13173075       2.03817902       2.03265544      -0.01055900      -0.00654000      -0.00104600 
      47      -4.03967890      -0.00045818      -4.07923018       0.01543500       0.03425600       0.04614000 
      47      -4.03561540       0.00505292      -0.00104349      -0.00116600       0.00067500      -0.00278600 
      47      -8.10779728       4.06848132      -4.07242143      -0.00110900       0.00182400      -0.00298900 
      47      -8.10640421       4.06865843      -0.00226077      -0.00170000       0.00108600      -0.00218400 
      47      -2.00675951       4.06275011      -2.03523067      -0.00165400       0.00176100      -0.00267800 
      47      -4.04542842       2.03368813      -6.10634084      -0.00047300       0.00372800      -0.00408900 
      47      -4.04403535       2.03386524      -2.03618019      -0.00057700      -0.01040600      -0.01397200 
      47      -4.04264229       2.03404235       2.03398046      -0.00832700      -0.00534500      -0.00157500 
      47      -6.07289124      -2.02383194      -0.00199301      -0.00064700       0.00164500      -0.00255200 
      47      -8.11343111       6.09764786       2.03276318      -0.00178000       0.00014900      -0.00233800 
      47      -6.12505732       0.00561951       2.03269441       0.00006100      -0.00054200       0.00349900 
      47      -0.02541262      -0.00028881      -0.00027549       0.00013500      -0.00048200       0.00282100 
      47      -4.09759450       4.06313959      -4.07165342       0.00043500      -0.00058700       0.00303300 
      47      -4.09620144       4.06331669      -0.00149277      -0.00753600       0.00091100      -0.00410300 
      47      -6.12645039       0.00544240      -2.03746624       0.00431600       0.00048700      -0.00048100 
      47      -2.06424324      -2.02920009      -4.07133981       0.00476400      -0.00348700       0.00338100 
      47      -4.10478311       6.09227970      -2.03658363       0.00089400      -0.00180100       0.00233000 
      47      -6.13503206       2.03440541      -4.07255710       0.00329900      -0.00260400       0.00353100 
      47      -6.13363899       2.03458252      -0.00239645       0.00142000      -0.00148100       0.00225600 
      47      -6.13224593       2.03475963       4.06776420       0.00119700      -0.00134400       0.00220200 
30
Lattice="-2.0316420172106553 -4.05805140130902 -6.106134123201233 -6.098251640795407 0.006085428360203 6.103130545122209 -2.0419329309364853 8.121302686638138 -2.035404463601998" Properties=Z:I:1:pos:R:3:vasp_force:R:3 uuid=982f1e42-b788-4d05-b2b1-955d6ccf4903 vasp_virial="-0.13399868775883092 0.27145453348294 -0.03757889813759171 0.27145453348294 -0.08458240525059149 0.00518101835196832 -0.03757889813759171 0.00518101835196832 0.2998227323281436" vasp_energy=-108.20120794 pbc="T T T"
      46      -8.13711507       0.00729641      -0.00302748      -0.00232000      -0.00306200       0.00568000 
      46      -2.03747037       0.00138809      -2.03599737       0.01390800      -0.00189100       0.01103000 
      46      -2.03607730       0.00156520       2.03416328       0.00292700      -0.00128700       0.00062900 
      46      -6.10825918       4.06499360      -2.03721466       0.00394000      -0.00149900       0.00153300 
      46      -6.10686612       4.06517070       2.03294599       0.00390400      -0.00067200      -0.00003900 
      46      -2.03208604       2.03227070      -0.00031446      -0.00283900       0.01185200       0.00848100 
      46      -4.06233499      -2.02560359      -2.03628793      -0.00328700      -0.00123700       0.00041000 
      46      -6.10287486       6.09587621      -0.00153174      -0.00177800       0.00082100      -0.00183500 
      46      -8.13312381       2.03800191      -2.03750521      -0.00228000       0.00090600      -0.00069200 
      46      -8.13173075       2.03817902       2.03265544       0.00392300       0.00810600      -0.00237900 
      47      -4.03433803       0.01020981      -4.06317810      -0.01761300      -0.03283700      -0.04999000 
      47      -4.03561540       0.00505292      -0.00104349      -0.00114900       0.00082300      -0.00162000 
      47      -8.10779728       4.06848132      -4.07242143      -0.00088700       0.00185100      -0.00301700 
      47      -8.10640421       4.06865843      -0.00226077      -0.00155300       0.00106700      -0.00215700 
      47      -2.00675951       4.06275011      -2.03523067      -0.00152500       0.00199300      -0.00160500 
      47      -4.04542842       2.03368813      -6.10634084      -0.00102200      -0.00257400      -0.00069200 
      47      -4.04403535       2.03386524      -2.03618019      -0.00124800       0.01310900       0.00909500 
      47      -4.04264229       2.03404235       2.03398046       0.00587100       0.00796500      -0.00367100 
      47      -6.07289124      -2.02383194      -0.00199301      -0.00105900       0.00147200      -0.00259900 
      47      -8.11343111       6.09764786       2.03276318      -0.00159600       0.00001700      -0.00239300 
      47      -6.12505732       0.00561951       2.03269441       0.00044400      -0.00084100       0.00297300 
      47      -0.02541262      -0.00028881      -0.00027549       0.00054200      -0.00029100       0.00347100 
      47      -4.09759450       4.06313959      -4.07165342       0.00029100      -0.00010400       0.00267500 
      47      -4.09620144       4.06331669      -0.00149277       0.00763900      -0.00014300       0.01001800 
      47      -6.12645039       0.00544240      -2.03746624      -0.00441900      -0.00073700       0.00609300 
      47      -2.06424324      -2.02920009      -4.07133981      -0.00242500       0.00143200       0.00082500 
      47      -4.10478311       6.09227970      -2.03658363       0.00126100      -0.00222600       0.00274500 
      47      -6.13503206       2.03440541      -4.07255710      -0.00077300       0.00004300       0.00160300 
      47      -6.13363899       2.03458252      -0.00239645       0.00174300      -0.00107300       0.00281700 
      47      -6.13224593       2.03475963       4.06776420       0.00138000      -0.00098500       0.00261300 
30
Lattice="-2.0316420172106553 -4.05805140130902 -6.106134123201233 -6.098251640795407 0.006085428360203 6.103130545122209 -2.0419329309364853 8.121302686638138 -2.035404463601998" Properties=Z:I:1:pos:R:3:vasp_force:R:3 uuid=212338f8-f5ea-4310-a332-958208b9ec62 vasp_virial="-0.14572282582670334 0.2722850063699586 -0.039532396860465016 0.2722850063699586 -0.09088644943841451 0.00391643463764454 -0.039532396860465016 0.00391643463764454 0.2899388466803692" vasp_energy=-108.2012171 pbc="T T T"
      46      -8.13711507       0.00729641      -0.00302748      -0.00952200      -0.00271300       0.01414400 
      46      -2.03747037       0.00138809      -2.03599737       0.00450800      -0.00163900       0.00023200 
      46      -2.03607730       0.00156520       2.03416328       0.00311100      -0.00151400       0.00083400 
      46      -6.10825918       4.06499360      -2.03721466       0.00400300      -0.00158900       0.00151000 
      46      -6.10686612       4.06517070       2.03294599       0.00337000      -0.00108600      -0.00002900 
      46      -2.03208604       2.03227070      -0.00031446      -0.00219600       0.00713400       0.00305600 
      46      -4.06233499      -2.02560359      -2.03628793      -0.00253900      -0.00468500       0.00454500 
      46      -6.10287486       6.09587621      -0.00153174      -0.00192200       0.00099400      -0.00203200 
      46      -8.13312381       2.03800191      -2.03750521      -0.00235000       0.00119900      -0.00036000 
      46      -8.13173075       2.03817902       2.03265544      -0.00945300      -0.00600700      -0.00226400 
      47      -4.04407670       0.00488287      -4.06413025       0.04242300       0.00098800      -0.04406900 
      47      -4.03561540       0.00505292      -0.00104349      -0.00108300       0.00072000      -0.00179900 
      47      -8.10779728       4.06848132      -4.07242143      -0.00097300       0.00173000      -0.00300000 
      47      -8.10640421       4.06865843      -0.00226077      -0.00163000       0.00094000      -0.00219700 
      47      -2.00675951       4.06275011      -2.03523067      -0.00149400       0.00192000      -0.00170700 
      47      -4.04542842       2.03368813      -6.10634084       0.00026600      -0.00588800       0.00324600 
      47      -4.04403535       2.03386524      -2.03618019       0.00007400       0.00771500       0.00313300 
      47      -4.04264229       2.03404235       2.03398046      -0.00686000      -0.00513800      -0.00362800 
      47      -6.07289124      -2.02383194      -0.00199301      -0.00116100       0.00154900      -0.00233900 
      47      -8.11343111       6.09764786       2.03276318      -0.00171500       0.00013400      -0.00244300 
      47      -6.12505732       0.00561951       2.03269441      -0.00019500      -0.00071400       0.00300900 
      47      -0.02541262      -0.00028881      -0.00027549       0.00042100      -0.00023200       0.00314500 
      47      -4.09759450       4.06313959      -4.07165342       0.00043200      -0.00035700       0.00276000 
      47      -4.09620144       4.06331669      -0.00149277       0.00066000       0.00044700       0.00241200 
      47      -6.12645039       0.00544240      -2.03746624      -0.01068600      -0.00002900       0.01313800 
      47      -2.06424324      -2.02920009      -4.07133981      -0.00553400       0.00711300       0.00092700 
      47      -4.10478311       6.09227970      -2.03658363       0.00123000      -0.00218100       0.00261200 
      47      -6.13503206       2.03440541      -4.07255710      -0.00334400       0.00384400       0.00165100 
      47      -6.13363899       2.03458252      -0.00239645       0.00122400      -0.00141000       0.00284500 
      47      -6.13224593       2.03475963       4.06776420       0.00093500      -0.00124400       0.00266800 
30
Lattice="-2.0316420172106553 -4.05805140130902 -6.106134123201233 -6.098251640795407 0.006085428360203 6.103130545122209 -2.0419329309364853 8.121302686638138 -2.035404463601998" Properties=Z:I:1:pos:R:3:vasp_force:R:3 uuid=e6ebb575-62d5-43d3-bacf-4bb89ebf385a vasp_virial="-0.12317422865189528 0.26408094088001727 -0.05155537933843885 0.26408094088001727 -0.07724656141526051 0.002607810694463714 -0.05155537933843885 0.002607810694463714 0.3038618504604614" vasp_energy=-108.20123544 pbc="T T T"
      46      -8.13711507       0.00729641      -0.00302748       0.01607600      -0.00252600      -0.01224100 
      46      -2.03747037       0.00138809      -2.03599737       0.00324500      -0.00200000       0.00130300 
      46      -2.03607730       0.00156520       2.03416328       0.00307200      -0.00146200       0.00072100 
      46      -6.10825918       4.06499360      -2.03721466       0.00387600      -0.00148300       0.00115400 
      46      -6.10686612       4.06517070       2.03294599       0.00381300      -0.00054600       0.00036200 
      46      -2.03208604       2.03227070      -0.00031446      -0.00395300      -0.00481200      -0.00763000 
      46      -4.06233499      -2.02560359      -2.03628793      -0.00335800       0.00733500      -0.00644700 
      46      -6.10287486       6.09587621      -0.00153174      -0.00174700       0.00065400      -0.00176200 
      46      -8.13312381       2.03800191      -2.03750521      -0.00165700       0.00090900      -0.00091800 
      46      -8.13173075       2.03817902       2.03265544       0.00272400       0.00753900      -0.00104900 
      47      -4.02994022       0.00486876      -4.07827803      -0.04454500       0.00095500       0.04021400 
      47      -4.03561540       0.00505292      -0.00104349      -0.00122700       0.00076400      -0.00260100 
      47      -8.10779728       4.06848132      -4.07242143      -0.00102700       0.00193100      -0.00299800 
      47      -8.10640421       4.06865843      -0.00226077      -0.00162500       0.00119500      -0.00213500 
      47      -2.00675951       4.06275011      -2.03523067      -0.00169700       0.00181300      -0.00256800 
      47      -4.04542842       2.03368813      -6.10634084      -0.00181800       0.00716600      -0.00814700 
      47      -4.04403535       2.03386524      -2.03618019      -0.00181800      -0.00541400      -0.00840200 
      47      -4.04264229       2.03404235       2.03398046       0.00448100       0.00775000      -0.00172200 
      47      -6.07289124      -2.02383194      -0.00199301      -0.00054800       0.00154800      -0.00280300 
      47      -8.11343111       6.09764786       2.03276318      -0.00166500       0.00001600      -0.00227900 
      47      -6.12505732       0.00561951       2.03269441       0.00069900      -0.00068700       0.00347500 
      47      -0.02541262      -0.00028881      -0.00027549       0.00024700      -0.00055700       0.00314800 