  32
   1   1
     6.930665989570575    -0.046417071414423     0.005893336792400
    -0.042774870391618     6.946483900646053    -0.038648173126500
     0.028731759985217    -0.027136150312573     7.595153031048391
   1   2
    -0.752857220933271    -0.789588858954965     0.003948113325385
    -0.786551785225344    -0.751591648627732    -0.006562902489552
    -0.004397227865454     0.009291333481243     0.010339429332878
   1   3
    -0.096107682639763    -0.002857711581640    -0.058557365391358
     0.004598926276015     0.003368104757597     0.003704430126370
     0.045451981265305     0.006322444171549     0.107249222919921
   1   4
    -0.746497849820093     0.796386074488160    -0.007124452445229
     0.798976489350596    -0.745925722944056    -0.005901106529058
     0.010215735815933     0.004634144640940     0.038553535545923
   1   5
    -0.054216650245380     0.013436767823470     0.003672092514234
     0.013441044475508    -0.276978985622362     0.001408995990685
     0.003540859280242    -0.000241482151220     0.097037340429409
   1   6
    -0.747090244507612     0.798858435921879     0.010668824835277
     0.795459719258004    -0.746020672527078     0.006179760081501
    -0.006793509804722    -0.007519341021953     0.038437337268862
   1   7
    -0.096140689286940     0.004797941794202     0.045300216083738
    -0.002973268583937     0.003453373447298     0.007819740834181
    -0.058518731049992     0.002054914801446     0.107352573866655
   1   8
    -0.752080535820731    -0.785689006408676    -0.004746124977032
    -0.789475472313013    -0.751811975494758     0.010816868024001
     0.003809778645888    -0.008372278771364     0.010366631889080
   1   9
    -0.950459474995950    -0.003262523382265     1.212834488326193
    -0.003361404961531     0.026254675779640     0.000249322276859
     1.211682212995526     0.000990521210303    -0.968632562562719
   1  10
     0.073411131638445    -0.004521048291421    -0.002867508667960
    -0.004377953900279    -0.973231323726441    -1.185029850994499
    -0.004158715321038    -1.183928567162542    -0.964978856938543
   1  11
    -0.030161964479473    -0.002434946111684     0.014530851561515
    -0.002669005483834    -0.114514903396062    -0.000889080269663
     0.013254059925927     0.000191530445629    -0.053771050548562
   1  12
    -0.144192854559836     0.049721662591169    -0.003401562505728
     0.049366599291092    -0.005962175158607     0.000379076861414
    -0.004832245039197     0.000923001680394    -0.048049826883272
   1  13
    -0.012777836493262     0.000274208726491    -0.016944344142291
     0.000539689458305    -0.093608462823040     0.004075118454205
    -0.018510643339889     0.004902656820939    -0.036978410393842
   1  14
     0.065958695149413     0.000738761258208    -0.003444734543121
     0.000832093089352    -0.976689857486633     1.199985192846392
    -0.004695518802205     1.200921324734520    -0.977547198989035
   1  15
    -0.952124715759987     0.011034109979082    -1.195975277608624
     0.010868069169684     0.023553448691783    -0.005276194449920
    -1.197395889313842    -0.004614196779848    -0.984120876499560
   1  16
    -0.152144447853053    -0.052169348037650     0.003216647941635
    -0.052195470817801     0.003240790397675    -0.004136461259061
     0.001502380457961    -0.003550482046319    -0.057417248772058
   1  17
    -0.031353369098691     0.002862551482840     0.056706992930943
     0.009322130793572     0.003369144934874     0.021064416658344
     0.033587126411782     0.008885137348809    -0.042873202000534
   1  18
     0.007773900295805     0.006858343871227     0.006518479935470
     0.002629343268459     0.003702151395524    -0.013756372556300
     0.003446464171034    -0.007995241734267    -0.004610197284057
   1  19
     0.022053950106878     0.000363904562116    -0.014470301730003
    -0.006237705531008    -0.058109445667886     0.020468665166792
    -0.011419051459633     0.010219172005017    -0.054640499672683
   1  20
     0.009752045509791     0.005015341176385    -0.005485791432165
    -0.000653886421977     0.019955124803116     0.014141549356693
    -0.006443397248824     0.008651529402150     0.010434910312882
   1  21
    -0.035114113539653    -0.000945057804556    -0.024267686329963
    -0.004241460728164     0.003075388444137    -0.019865669676627
    -0.015781101829241    -0.009077074545429    -0.044153441731990
   1  22
     0.010423318797336    -0.003278238163864     0.000264008851409
    -0.000004517116620     0.005478425645259     0.014367276837469
     0.004370858013114     0.007922284973301     0.000856351817662
   1  23
     0.022318811997501    -0.001310097429866    -0.018843898026575
     0.005171802249045     0.031251144206848    -0.017475547695690
    -0.011842167693622    -0.007190013323104    -0.069269902397913
   1  24
     0.014882126584555    -0.006259156151546    -0.005025233695112
    -0.001681566529667     0.016587808379767    -0.010817965878502
    -0.010105409948715    -0.009237474275180    -0.023341895806470
   1  25
    -0.034873398128522    -0.018284041843375    -0.004387983059109
    -0.012927266501688     0.001407884659819    -0.001115234470613
    -0.003378001051317    -0.000559703449472    -0.000650581446614
   1  26
    -0.868926006106041     0.005077233656948    -1.054326905407320
     0.004419833288020     0.091614735633354     0.008765260106130
    -0.951423325738454     0.005203340056365    -0.909511424266158
   1  27
     0.108724483926535     0.000078462346692     0.009713176809223
     0.000638067824987    -0.877539057777767     1.059979529201167
    -0.000065646242076     0.954105148508870    -0.921049427313059
   1  28
    -0.004324018217624    -0.000297331575625    -0.000670972901992
    -0.001087268059737    -0.012897840295517     0.000616376482167
    -0.003322980964799     0.002308919582864    -0.009408217409472
   1  29
    -0.031665862051295     0.019702900447145    -0.012046559518790
     0.013232789882288    -0.003699419016324    -0.000112588102874
    -0.005558452512087    -0.001304089959675    -0.015268131826089
   1  30
    -0.008828441631950    -0.000761119032260    -0.008074836388820
    -0.001355854828098    -0.027693109771823    -0.011082756793903
    -0.001856173368411    -0.006596083933294    -0.017319848917362
   1  31
     0.109577448713914     0.001517665400861     0.002526276010726
     0.001629866740114    -0.871152494323245    -1.054441830960827
     0.005343859348788    -0.951084479646324    -0.906483057075524
   1  32
    -0.873605216804782     0.001351249586367     1.064867473928138
     0.001439792921101     0.104629992587373     0.001090156070407
     0.955562432817143     0.000880548160079    -0.905704367216093
   2   1
    -0.752080535820730    -0.785689006408676    -0.004746124977032
    -0.789475472313013    -0.751811975494758     0.010816868024001
     0.003809778645888    -0.008372278771364     0.010366631889080
   2   2
     6.930665989570573    -0.046417071414423     0.005893336792400
    -0.042774870391618     6.946483900646053    -0.038648173126500
     0.028731759985217    -0.027136150312573     7.595153031048391
   2   3
    -0.752857220933270    -0.789588858954965     0.003948113325385
    -0.786551785225344    -0.751591648627732    -0.006562902489552
    -0.004397227865454     0.009291333481243     0.010339429332878
   2   4
    -0.096107682639763    -0.002857711581640    -0.058557365391358
     0.004598926276015     0.003368104757597     0.003704430126370
     0.045451981265305     0.006322444171549     0.107249222919921
   2   5
    -0.746497849820093     0.796386074488160    -0.007124452445229
     0.798976489350596    -0.745925722944056    -0.005901106529058
     0.010215735815933     0.004634144640940     0.038553535545923
   2   6
    -0.054216650245380     0.013436767823470     0.003672092514234
     0.013441044475508    -0.276978985622362     0.001408995990685
     0.003540859280242    -0.000241482151220     0.097037340429409
   2   7
    -0.747090244507612     0.798858435921879     0.010668824835277
     0.795459719258004    -0.746020672527078     0.006179760081501
    -0.006793509804722    -0.007519341021953     0.038437337268862
   2   8
    -0.096140689286940     0.004797941794202     0.045300216083738
    -0.002973268583937     0.003453373447298     0.007819740834181
    -0.058518731049992     0.002054914801446     0.107352573866655
   2   9
    -0.152144447853053    -0.052169348037650     0.003216647941635
    -0.052195470817801     0.003240790397675    -0.004136461259061
     0.001502380457961    -0.003550482046319    -0.057417248772058
   2  10
    -0.950459474995950    -0.003262523382265     1.212834488326192
    -0.003361404961531     0.026254675779640     0.000249322276859
     1.211682212995526     0.000990521210303    -0.968632562562719
   2  11
     0.073411131638445    -0.004521048291421    -0.002867508667960
    -0.004377953900279    -0.973231323726441    -1.185029850994499
    -0.004158715321038    -1.183928567162542    -0.964978856938543
   2  12
    -0.030161964479473    -0.002434946111684     0.014530851561515
    -0.002669005483834    -0.114514903396062    -0.000889080269663
     0.013254059925927     0.000191530445629    -0.053771050548562
   2  13
    -0.144192854559836     0.049721662591169    -0.003401562505728
     0.049366599291092    -0.005962175158607     0.000379076861414
    -0.004832245039197     0.000923001680394    -0.048049826883272
   2  14
    -0.012777836493262     0.000274208726491    -0.016944344142291
     0.000539689458305    -0.093608462823040     0.004075118454205
    -0.018510643339889     0.004902656820939    -0.036978410393842
   2  15
     0.065958695149413     0.000738761258208    -0.003444734543121
     0.000832093089352    -0.976689857486633     1.199985192846392
    -0.004695518802205     1.200921324734520    -0.977547198989036
   2  16
    -0.952124715759987     0.011034109979082    -1.195975277608624
     0.010868069169684     0.023553448691783    -0.005276194449920
    -1.197395889313842    -0.004614196779848    -0.984120876499560
   2  17
     0.014882126584555    -0.006259156151546    -0.005025233695112
    -0.001681566529667     0.016587808379767    -0.010817965878502
    -0.010105409948715    -0.009237474275180    -0.023341895806470
   2  18
    -0.031353369098691     0.002862551482840     0.056706992930943
     0.009322130793572     0.003369144934874     0.021064416658344
     0.033587126411782     0.008885137348809    -0.042873202000534
   2  19
     0.007773900295805     0.006858343871227     0.006518479935470
     0.002629343268459     0.003702151395524    -0.013756372556300
     0.003446464171034    -0.007995241734267    -0.004610197284057
   2  20
     0.022053950106878     0.000363904562116    -0.014470301730003
    -0.006237705531008    -0.058109445667886     0.020468665166792
    -0.011419051459633     0.010219172005017    -0.054640499672683
   2  21
     0.009752045509791     0.005015341176385    -0.005485791432165
    -0.000653886421977     0.019955124803116     0.014141549356693
    -0.006443397248824     0.008651529402150     0.010434910312882
   2  22
    -0.035114113539653    -0.000945057804556    -0.024267686329963
    -0.004241460728164     0.003075388444137    -0.019865669676627
    -0.015781101829241    -0.009077074545429    -0.044153441731990
   2  23
     0.010423318797336    -0.003278238163864     0.000264008851409
    -0.000004517116620     0.005478425645259     0.014367276837469
     0.004370858013114     0.007922284973301     0.000856351817662
   2  24
     0.022318811997501    -0.001310097429866    -0.018843898026575
     0.005171802249045     0.031251144206848    -0.017475547695690
    -0.011842167693622    -0.007190013323104    -0.069269902397913
   2  25
    -0.873605216804782     0.001351249586367     1.064867473928138
     0.001439792921101     0.104629992587373     0.001090156070407
     0.955562432817143     0.000880548160079    -0.905704367216093
   2  26
    -0.034873398128522    -0.018284041843375    -0.004387983059109
    -0.012927266501688     0.001407884659819    -0.001115234470613
    -0.003378001051317    -0.000559703449472    -0.000650581446614
   2  27
    -0.868926006106040     0.005077233656948    -1.054326905407319
     0.004419833288020     0.091614735633354     0.008765260106130
    -0.951423325738454     0.005203340056365    -0.909511424266158
   2  28
     0.108724483926535     0.000078462346692     0.009713176809223
     0.000638067824987    -0.877539057777767     1.059979529201167
    -0.000065646242076     0.954105148508870    -0.921049427313059
   2  29
    -0.004324018217624    -0.000297331575625    -0.000670972901992
    -0.001087268059737    -0.012897840295517     0.000616376482167
    -0.003322980964799     0.002308919582864    -0.009408217409472
   2  30
    -0.031665862051295     0.019702900447145    -0.012046559518790
     0.013232789882288    -0.003699419016324    -0.000112588102874
    -0.005558452512087    -0.001304089959675    -0.015268131826089
   2  31
    -0.008828441631950    -0.000761119032260    -0.008074836388820
    -0.001355854828098    -0.027693109771823    -0.011082756793903
    -0.001856173368411    -0.006596083933294    -0.017319848917362
   2  32
     0.109577448713913     0.001517665400861     0.002526276010726
     0.001629866740114    -0.871152494323245    -1.054441830960827
     0.005343859348788    -0.951084479646324    -0.906483057075524
   3   1
    -0.096140689286940     0.004797941794202     0.045300216083738
    -0.002973268583937     0.003453373447298     0.007819740834181
    -0.058518731049992     0.002054914801446     0.107352573866655
   3   2
    -0.752080535820730    -0.785689006408676    -0.004746124977032
    -0.789475472313013    -0.751811975494758     0.010816868024001
     0.003809778645888    -0.008372278771364     0.010366631889080
   3   3
     6.930665989570573    -0.046417071414423     0.005893336792400
    -0.042774870391618     6.946483900646053    -0.038648173126500
     0.028731759985217    -0.027136150312573     7.595153031048391
   3   4
    -0.752857220933270    -0.789588858954965     0.003948113325385
    -0.786551785225344    -0.751591648627732    -0.006562902489552
    -0.004397227865454     0.009291333481243     0.010339429332878
   3   5
    -0.096107682639763    -0.002857711581640    -0.058557365391358
     0.004598926276015     0.003368104757597     0.003704430126370
     0.045451981265305     0.006322444171549     0.107249222919921
   3   6
    -0.746497849820093     0.796386074488160    -0.007124452445229
     0.798976489350596    -0.745925722944056    -0.005901106529058
     0.010215735815933     0.004634144640940     0.038553535545923
   3   7
    -0.054216650245380     0.013436767823470     0.003672092514234
     0.013441044475508    -0.276978985622362     0.001408995990685
     0.003540859280242    -0.000241482151220     0.097037340429409
   3   8
    -0.747090244507612     0.798858435921879     0.010668824835277
     0.795459719258004    -0.746020672527078     0.006179760081501
    -0.006793509804722    -0.007519341021953     0.038437337268862
   3   9
    -0.952124715759987     0.011034109979082    -1.195975277608624
     0.010868069169684     0.023553448691783    -0.005276194449920
    -1.197395889313842    -0.004614196779848    -0.984120876499560
   3  10
    -0.152144447853053    -0.052169348037650     0.003216647941635
    -0.052195470817801     0.003240790397675    -0.004136461259061
     0.001502380457961    -0.003550482046319    -0.057417248772058
   3  11
    -0.950459474995950    -0.003262523382265     1.212834488326192
    -0.003361404961531     0.026254675779640     0.000249322276859
     1.211682212995526     0.000990521210303    -0.968632562562719
   3  12
     0.073411131638445    -0.004521048291421    -0.002867508667960
    -0.004377953900279    -0.973231323726441    -1.185029850994499
    -0.004158715321038    -1.183928567162542    -0.964978856938543
   3  13
    -0.030161964479473    -0.002434946111684     0.014530851561515
    -0.002669005483834    -0.114514903396062    -0.000889080269663
     0.013254059925927     0.000191530445629    -0.053771050548562
   3  14
    -0.144192854559836     0.049721662591169    -0.003401562505728
     0.049366599291092    -0.005962175158607     0.000379076861414
    -0.004832245039197     0.000923001680394    -0.048049826883272
   3  15
    -0.012777836493262     0.000274208726491    -0.016944344142291
     0.000539689458305    -0.093608462823040     0.004075118454205
    -0.018510643339889     0.004902656820939    -0.036978410393842
   3  16
     0.065958695149413     0.000738761258208    -0.003444734543121
     0.000832093089352    -0.976689857486633     1.199985192846392
    -0.004695518802205     1.200921324734520    -0.977547198989036
   3  17
     0.022318811997501    -0.001310097429866    -0.018843898026575
     0.005171802249045     0.031251144206848    -0.017475547695690
    -0.011842167693622    -0.007190013323104    -0.069269902397913
   3  18
     0.014882126584555    -0.006259156151546    -0.005025233695112
    -0.001681566529667     0.016587808379767    -0.010817965878502
    -0.010105409948715    -0.009237474275180    -0.023341895806470
   3  19
    -0.031353369098691     0.002862551482840     0.056706992930943
     0.009322130793572     0.003369144934874     0.021064416658344
     0.033587126411782     0.008885137348809    -0.042873202000534
   3  20
     0.007773900295805     0.006858343871227     0.006518479935470
     0.002629343268459     0.003702151395524    -0.013756372556300
     0.003446464171034    -0.007995241734267    -0.004610197284057
   3  21
     0.022053950106878     0.000363904562116    -0.014470301730003
    -0.006237705531008    -0.058109445667886     0.020468665166792
    -0.011419051459633     0.010219172005017    -0.054640499672683
   3  22
     0.009752045509791     0.005015341176385    -0.005485791432165
    -0.000653886421977     0.019955124803116     0.014141549356693
    -0.006443397248824     0.008651529402150     0.010434910312882
   3  23
    -0.035114113539653    -0.000945057804556    -0.024267686329963
    -0.004241460728164     0.003075388444137    -0.019865669676627
    -0.015781101829241    -0.009077074545429    -0.044153441731990
   3  24
     0.010423318797336    -0.003278238163864     0.000264008851409
    -0.000004517116620     0.005478425645259     0.014367276837469
     0.004370858013114     0.007922284973301     0.000856351817662
   3  25
     0.109577448713913     0.001517665400861     0.002526276010726
     0.001629866740114    -0.871152494323245    -1.054441830960827
     0.005343859348788    -0.951084479646324    -0.906483057075524
   3  26
    -0.873605216804782     0.001351249586367     1.064867473928138
     0.001439792921101     0.104629992587373     0.001090156070407
     0.955562432817143     0.000880548160079    -0.905704367216093
   3  27
    -0.034873398128522    -0.018284041843375    -0.004387983059109
    -0.012927266501688     0.001407884659819    -0.001115234470613
    -0.003378001051317    -0.000559703449472    -0.000650581446614
   3  28
    -0.868926006106040     0.005077233656948    -1.054326905407319
     0.004419833288020     0.091614735633354     0.008765260106130
    -0.951423325738454     0.005203340056365    -0.909511424266158
   3  29
     0.108724483926535     0.000078462346692     0.009713176809223
     0.000638067824987    -0.877539057777767     1.059979529201167
    -0.000065646242076     0.954105148508870    -0.921049427313059
   3  30
    -0.004324018217624    -0.000297331575625    -0.000670972901992
    -0.001087268059737    -0.012897840295517     0.000616376482167
    -0.003322980964799     0.002308919582864    -0.009408217409472
   3  31
    -0.031665862051295     0.019702900447145    -0.012046559518790
     0.013232789882288    -0.003699419016324    -0.000112588102874
    -0.005558452512087    -0.001304089959675    -0.015268131826089
   3  32
    -0.008828441631950    -0.000761119032260    -0.008074836388820
    -0.001355854828098    -0.027693109771823    -0.011082756793903
    -0.001856173368411    -0.006596083933294    -0.017319848917362
   4   1
    -0.747090244507612     0.798858435921879     0.010668824835277
     0.795459719258004    -0.746020672527078     0.006179760081501
    -0.006793509804722    -0.007519341021953     0.038437337268862
   4   2
    -0.096140689286940     0.004797941794202     0.045300216083738
    -0.002973268583937     0.003453373447298     0.007819740834181
    -0.058518731049992     0.002054914801446     0.107352573866655
   4   3
    -0.752080535820730    -0.785689006408676    -0.004746124977032
    -0.789475472313013    -0.751811975494758     0.010816868024001
     0.003809778645888    -0.008372278771364     0.010366631889080
   4   4
     6.930665989570573    -0.046417071414423     0.005893336792400
    -0.042774870391618     6.946483900646053    -0.038648173126500
     0.028731759985217    -0.027136150312573     7.595153031048391
   4   5
    -0.752857220933270    -0.789588858954965     0.003948113325385
    -0.786551785225344    -0.751591648627732    -0.006562902489552
    -0.004397227865454     0.009291333481243     0.010339429332878
   4   6
    -0.096107682639763    -0.002857711581640    -0.058557365391358
     0.004598926276015     0.003368104757597     0.003704430126370
     0.045451981265305     0.006322444171549     0.107249222919921
   4   7
    -0.746497849820093     0.796386074488160    -0.007124452445229
     0.798976489350596    -0.745925722944056    -0.005901106529058
     0.010215735815933     0.004634144640940     0.038553535545923
   4   8
    -0.054216650245380     0.013436767823470     0.003672092514234
     0.013441044475508    -0.276978985622362     0.001408995990685
     0.003540859280242    -0.000241482151220     0.097037340429409
   4   9
     0.065958695149413     0.000738761258208    -0.003444734543121
     0.000832093089352    -0.976689857486633     1.199985192846392
    -0.004695518802205     1.200921324734520    -0.977547198989036
   4  10
    -0.952124715759987     0.011034109979082    -1.195975277608624
     0.010868069169684     0.023553448691783    -0.005276194449920
    -1.197395889313842    -0.004614196779848    -0.984120876499560
   4  11
    -0.152144447853053    -0.052169348037650     0.003216647941635
    -0.052195470817801     0.003240790397675    -0.004136461259061
     0.001502380457961    -0.003550482046319    -0.057417248772058
   4  12
    -0.950459474995950    -0.003262523382265     1.212834488326192
    -0.003361404961531     0.026254675779640     0.000249322276859
     1.211682212995526     0.000990521210303    -0.968632562562719
   4  13
     0.073411131638445    -0.004521048291421    -0.002867508667960
    -0.004377953900279    -0.973231323726441    -1.185029850994499
    -0.004158715321038    -1.183928567162542    -0.964978856938543
   4  14
    -0.030161964479473    -0.002434946111684     0.014530851561515
    -0.002669005483834    -0.114514903396062    -0.000889080269663
     0.013254059925927     0.000191530445629    -0.053771050548562
   4  15
    -0.144192854559836     0.049721662591169    -0.003401562505728
     0.049366599291092    -0.005962175158607     0.000379076861414
    -0.004832245039197     0.000923001680394    -0.048049826883272
   4  16
    -0.012777836493262     0.000274208726491    -0.016944344142291
     0.000539689458305    -0.093608462823040     0.004075118454205
    -0.018510643339889     0.004902656820939    -0.036978410393842
   4  17
     0.010423318797336    -0.003278238163864     0.000264008851409
    -0.000004517116620     0.005478425645259     0.014367276837469
     0.004370858013114     0.007922284973301     0.000856351817662
   4  18
     0.022318811997501    -0.001310097429866    -0.018843898026575
     0.005171802249045     0.031251144206848    -0.017475547695690
    -0.011842167693622    -0.007190013323104    -0.069269902397913
   4  19
     0.014882126584555    -0.006259156151546    -0.005025233695112
    -0.001681566529667     0.016587808379767    -0.010817965878502
    -0.010105409948715    -0.009237474275180    -0.023341895806470
   4  20
    -0.031353369098691     0.002862551482840     0.056706992930943
     0.009322130793572     0.003369144934874     0.021064416658344
     0.033587126411782     0.008885137348809    -0.042873202000534
   4  21
     0.007773900295805     0.006858343871227     0.006518479935470
     0.002629343268459     0.003702151395524    -0.013756372556300
     0.003446464171034    -0.007995241734267    -0.004610197284057
   4  22
     0.022053950106878     0.000363904562116    -0.014470301730003
    -0.006237705531008    -0.058109445667886     0.020468665166792
    -0.011419051459633     0.010219172005017    -0.054640499672683
   4  23
     0.009752045509791     0.005015341176385    -0.005485791432165
    -0.000653886421977     0.019955124803116     0.014141549356693
    -0.006443397248824     0.008651529402150     0.010434910312882
   4  24
    -0.035114113539653    -0.000945057804556    -0.024267686329963
    -0.004241460728164     0.003075388444137    -0.019865669676627
    -0.015781101829241    -0.009077074545429    -0.044153441731990
   4  25
    -0.008828441631950    -0.000761119032260    -0.008074836388820
    -0.001355854828098    -0.027693109771823    -0.011082756793903
    -0.001856173368411    -0.006596083933294    -0.017319848917362
   4  26
     0.109577448713913     0.001517665400861     0.002526276010726
     0.001629866740114    -0.871152494323245    -1.054441830960827
     0.005343859348788    -0.951084479646324    -0.906483057075524
   4  27
    -0.873605216804782     0.001351249586367     1.064867473928138
     0.001439792921101     0.104629992587373     0.001090156070407
     0.955562432817143     0.000880548160079    -0.905704367216093
   4  28
    -0.034873398128522    -0.018284041843375    -0.004387983059109
    -0.012927266501688     0.001407884659819    -0.001115234470613
    -0.003378001051317    -0.000559703449472    -0.000650581446614
   4  29
    -0.868926006106040     0.005077233656948    -1.054326905407319
     0.004419833288020     0.091614735633354     0.008765260106130
    -0.951423325738454     0.005203340056365    -0.909511424266158
   4  30
     0.108724483926535     0.000078462346692     0.009713176809223
     0.000638067824987    -0.877539057777767     1.059979529201167
    -0.000065646242076     0.954105148508870    -0.921049427313059
   4  31
    -0.004324018217624    -0.000297331575625    -0.000670972901992
    -0.001087268059737    -0.012897840295517     0.000616376482167
    -0.003322980964799     0.002308919582864    -0.009408217409472
   4  32
    -0.031665862051295     0.019702900447145    -0.012046559518790
     0.013232789882288    -0.003699419016324    -0.000112588102874
    -0.005558452512087    -0.001304089959675    -0.015268131826089
   5   1
    -0.054216650245380     0.013436767823470     0.003672092514234
     0.013441044475508    -0.276978985622362     0.001408995990685
     0.003540859280242    -0.000241482151220     0.097037340429409
   5   2
    -0.747090244507612     0.798858435921879     0.010668824835277
     0.795459719258004    -0.746020672527078     0.006179760081501
    -0.006793509804722    -0.007519341021953     0.038437337268862
   5   3
    -0.096140689286940     0.004797941794202     0.045300216083738
    -0.002973268583937     0.003453373447298     0.007819740834181
    -0.058518731049992     0.002054914801446     0.107352573866655
   5   4
    -0.752080535820730    -0.785689006408676    -0.004746124977032
    -0.789475472313013    -0.751811975494758     0.010816868024001
     0.003809778645888    -0.008372278771364     0.010366631889080
   5   5
     6.930665989570573    -0.046417071414423     0.005893336792400
    -0.042774870391618     6.946483900646053    -0.038648173126500
     0.028731759985217    -0.027136150312573     7.595153031048391
   5   6
    -0.752857220933270    -0.789588858954965     0.003948113325385
    -0.786551785225344    -0.751591648627732    -0.006562902489552
    -0.004397227865454     0.009291333481243     0.010339429332878
   5   7
    -0.096107682639763    -0.002857711581640    -0.058557365391358
     0.004598926276015     0.003368104757597     0.003704430126370
     0.045451981265305     0.006322444171549     0.107249222919921
   5   8
    -0.746497849820093     0.796386074488160    -0.007124452445229
     0.798976489350596    -0.745925722944056    -0.005901106529058
     0.010215735815933     0.004634144640940     0.038553535545923
   5   9
    -0.012777836493262     0.000274208726491    -0.016944344142291
     0.000539689458305    -0.093608462823040     0.004075118454205
    -0.018510643339889     0.004902656820939    -0.036978410393842
   5  10
     0.065958695149413     0.000738761258208    -0.003444734543121
     0.000832093089352    -0.976689857486633     1.199985192846392
    -0.004695518802205     1.200921324734520    -0.977547198989036
   5  11
    -0.952124715759987     0.011034109979082    -1.195975277608624
     0.010868069169684     0.023553448691783    -0.005276194449920
    -1.197395889313842    -0.004614196779848    -0.984120876499560
   5  12
    -0.152144447853053    -0.052169348037650     0.003216647941635
    -0.052195470817801     0.003240790397675    -0.004136461259061
     0.001502380457961    -0.003550482046319    -0.057417248772058
   5  13
    -0.950459474995950    -0.003262523382265     1.212834488326192
    -0.003361404961531     0.026254675779640     0.000249322276859
     1.211682212995526     0.000990521210303    -0.968632562562719
   5  14
     0.073411131638445    -0.004521048291421    -0.002867508667960
    -0.004377953900279    -0.973231323726441    -1.185029850994499
    -0.004158715321038    -1.183928567162542    -0.964978856938543
   5  15
    -0.030161964479473    -0.002434946111684     0.014530851561515
    -0.002669005483834    -0.114514903396062    -0.000889080269663