32
Lattice="-0.0021030131881421 -8.038546101115891 -0.0014532905842798 2.0115584622611746 2.0115864142509157 8.1171714118056 -8.037494152666893 4.0171696013802025 -0.0007173637798159" Properties=Z:I:1:pos:R:3:vasp_force:R:3 uuid=30014571-9f5a-482e-8987-b6af80c7b18a vasp_virial="0.06947974298578656 -0.1374340414377038 -0.2723573190181592 -0.1374340414377038 0.029922936661157834 -0.18386844210924125 -0.2723573190181592 -0.18386844210924125 -0.2068843230483727" vasp_energy=-128.26613722 pbc="T T T"
      46      -6.02957720      -2.02133425       0.04447546      -0.00010700       0.06972000       0.00389300 
      46      -4.01941241      -0.00117186       0.04520160      -0.00740300      -0.00583900       0.00433200 
      46      -2.01135326      -6.02955558       0.04447263       0.00004700       0.00011900       0.00499300 
      46      -0.00119109      -4.01939319       0.04519696       0.00762600      -0.00638600       0.00420400 
      46      -6.02852307       2.00793880       0.04520392      -0.00000500      -0.00275600       0.00399200 
      46      -4.02046392      -4.02044491       0.04447495       0.00842300      -0.00605100       0.00445900 
      46      -2.01030175      -2.01028253       0.04519928      -0.00004500       0.00012100       0.00503200 
      46      -0.00013958      -0.00012014       0.04592360      -0.00825800      -0.00671100       0.00437000 
      46      -0.00109625      -6.02844205       1.98214317      -0.00011700      -0.00056500      -0.00532000 
      46      -6.02842823      -0.00111006       1.98215013      -0.00020600      -0.01018200      -0.01639900 
      46      -4.01826607       2.00905233       1.98287445       0.00001800      -0.00120300      -0.00432100 
      46      -2.01020691      -4.01933138       1.98214549       0.00003600      -0.00149400      -0.00506200 
      46      -0.00004474      -2.00916900       1.98286981      -0.00011300      -0.00176800      -0.00525500 
      46      -6.02947974      -4.02038311       1.98142348      -0.00015300      -0.01050900       0.00745300 
      46      -4.01931757      -2.01022072       1.98214781       0.00010800       0.00018400      -0.00439100 
      46      -2.00915540      -0.00005833       1.98287213      -0.00097900      -0.00139500      -0.00510800 
      47      -2.00839558       2.00981621       4.00513287      -0.00013200       0.00003800      -0.00075900 
      47      -0.00033643      -4.01856751       4.00440390      -0.00022700      -0.00013600      -0.00039700 
      47      -6.02766841       2.00876448       4.00441086      -0.00075400      -0.00074900      -0.00048400 
      47      -4.01960926      -4.01961923       4.00368190      -0.00116900       0.00080600      -0.00112300 
      47      -2.00944709      -2.00945684       4.00440622      -0.00026800       0.00003300      -0.00116800 
      47       0.00071508       0.00070554       4.00513055      -0.00025200      -0.00011900      -0.00011500 
      47      -6.02871992      -2.01050857       4.00368422      -0.00063900       0.00014600      -0.00086600 
      47      -4.01855775      -0.00034618       4.00440854      -0.00118000       0.00077300      -0.00136900 
      47       0.00156369       2.01071963       6.14074667       0.00078000      -0.00026600       0.00114800 
      47      -6.02787131      -0.00049448       6.13930034       0.00088200       0.00067600       0.00124500 
      47      -4.01770914       2.00966790       6.14002467       0.00073000      -0.00782100       0.01164500 
      47      -2.00964999      -4.01871581       6.13929570       0.00037600      -0.00049100       0.00132900 
      47       0.00051218      -2.00855342       6.14002003       0.00104100      -0.00031900       0.00115500 
      47      -6.02681981       4.01877857       6.14002699       0.00081400      -0.00051700       0.00103500 
      47      -4.01876065      -2.00960515       6.13929802       0.00074000      -0.00802500      -0.00949800 
      47      -2.00859848       0.00055724       6.14002235       0.00038600       0.00068400       0.00134900 
32
Lattice="-0.0021030131881421 -8.038546101115891 -0.0014532905842798 2.0115584622611746 2.0115864142509157 8.1171714118056 -8.037494152666893 4.0171696013802025 -0.0007173637798159" Properties=Z:I:1:pos:R:3:vasp_force:R:3 uuid=fc22db21-9a33-483e-afe6-4fff298a38f6 vasp_virial="0.08532341582683282 -0.13637015844734426 -0.2692245927973159 -0.13637015844734426 0.04484348641518446 -0.17074830972351535 -0.2692245927973159 -0.17074830972351535 -0.19302110931245722" vasp_energy=-128.26618998 pbc="T T T"
      46      -6.02957458      -2.01133425       0.04447727       0.00922100       0.00008900      -0.00237700 
      46      -4.01941241      -0.00117186       0.04520160      -0.00011900       0.00139800       0.00383800 
      46      -2.01135326      -6.02955558       0.04447263      -0.01373100       0.00013600      -0.00736800 
      46      -0.00119109      -4.01939319       0.04519696      -0.00002500       0.01010200      -0.00221300 
      46      -6.02852307       2.00793880       0.04520392      -0.00029600      -0.00015300       0.00358500 
      46      -4.02046392      -4.02044491       0.04447495       0.00008500       0.00165700       0.00391900 
      46      -2.01030175      -2.01028253       0.04519928       0.00009800      -0.00018600       0.00445600 
      46      -0.00013958      -0.00012014       0.04592360      -0.00000800      -0.01279300      -0.00783500 
      46      -0.00343493      -6.03078076       1.97270596       0.01508000       0.01519700       0.06667400 
      46      -6.02842823      -0.00111006       1.98215013      -0.00364600      -0.00424700      -0.00465200 
      46      -4.01826607       2.00905233       1.98287445      -0.00068300      -0.00001200      -0.00316000 
      46      -2.01020691      -4.01933138       1.98214549      -0.00034100      -0.00139300      -0.00464800 
      46      -0.00004474      -2.00916900       1.98286981      -0.00013300      -0.00144900      -0.00436400 
      46      -6.02947974      -4.02038311       1.98142348       0.00010500      -0.00041000      -0.00441400 
      46      -4.01931757      -2.01022072       1.98214781       0.00030600       0.00000900      -0.00341100 
      46      -2.00915540      -0.00005833       1.98287213      -0.00406500      -0.00495100      -0.00494400 
      47      -2.00839558       2.00981621       4.00513287       0.00671400       0.00025500      -0.00697500 
      47      -0.00033643      -4.01856751       4.00440390       0.00009900      -0.01093000      -0.01107100 
      47      -6.02766841       2.00876448       4.00441086      -0.00067900      -0.00029300      -0.00090300 
      47      -4.01960926      -4.01961923       4.00368190      -0.00120900       0.00063500      -0.00143900 
      47      -2.00944709      -2.00945684       4.00440622      -0.00021600      -0.00000200      -0.00105900 
      47       0.00071508       0.00070554       4.00513055       0.00005000       0.00669000      -0.00640400 
      47      -6.02871992      -2.01050857       4.00368422      -0.01139100       0.00009800      -0.01151600 
      47      -4.01855775      -0.00034618       4.00440854      -0.00125400       0.00056600      -0.00128400 
      47       0.00156369       2.01071963       6.14074667       0.00089600      -0.00034400       0.00089500 
      47      -6.02787131      -0.00049448       6.13930034       0.00083400      -0.00023200       0.00040900 
      47      -4.01770914       2.00966790       6.14002467       0.00084000       0.00090500       0.00127800 
      47      -2.00964999      -4.01871581       6.13929570       0.00019500      -0.00044000       0.00079700 
      47       0.00051218      -2.00855342       6.14002003       0.00092200      -0.00013500       0.00127700 
      47      -6.02681981       4.01877857       6.14002699       0.00080800      -0.00027900       0.00063900 
      47      -4.01876065      -2.00960515       6.13929802       0.00083700       0.00077300       0.00117500 
      47      -2.00859848       0.00055724       6.14002235       0.00070700      -0.00026000       0.00109600 
32
Lattice="-0.0021030131881421 -8.038546101115891 -0.0014532905842798 2.0115584622611746 2.0115864142509157 8.1171714118056 -8.037494152666893 4.0171696013802025 -0.0007173637798159" Properties=Z:I:1:pos:R:3:vasp_force:R:3 uuid=06862790-77ef-4f37-b85d-656300096292 vasp_virial="0.07396769246204161 -0.1377973983974881 -0.2636563929000804 -0.1377973983974881 0.03281015142268733 -0.17803836332207112 -0.2636563929000804 -0.17803836332207112 -0.20338823986774512" vasp_energy=-128.26613984 pbc="T T T"
      46      -6.02957458      -2.01133425       0.04447727      -0.00849900      -0.00011100       0.01467500 
      46      -4.01941241      -0.00117186       0.04520160      -0.00080200       0.00105900       0.00445500 
      46      -2.01135326      -6.02955558       0.04447263      -0.00865500       0.00005000      -0.00587900 
      46      -0.00119109      -4.01939319       0.04519696       0.00043800       0.00530700      -0.00113500 
      46      -6.02852307       2.00793880       0.04520392      -0.00023100       0.00042700       0.00382300 
      46      -4.02046392      -4.02044491       0.04447495      -0.00118400       0.00200400       0.00437900 
      46      -2.01030175      -2.01028253       0.04519928      -0.00023900       0.00057300       0.00510000 
      46      -0.00013958      -0.00012014       0.04592360       0.00048300       0.00524300       0.00952800 
      46      -0.01004122      -6.02397131       1.98214237       0.06173500      -0.03187900      -0.00588100 
      46      -6.02842823      -0.00111006       1.98215013      -0.00331900      -0.00423400      -0.00478500 
      46      -4.01826607       2.00905233       1.98287445      -0.00077100      -0.00003700      -0.00388000 
      46      -2.01020691      -4.01933138       1.98214549      -0.01094400       0.00932500      -0.00494100 
      46      -0.00004474      -2.00916900       1.98286981      -0.00064100       0.00052200      -0.00521300 
      46      -6.02947974      -4.02038311       1.98142348      -0.01011200       0.00957100      -0.00473700 
      46      -4.01931757      -2.01022072       1.98214781      -0.00081500      -0.00009500      -0.00478900 
      46      -2.00915540      -0.00005833       1.98287213      -0.00366500      -0.00516900      -0.00493400 
      47      -2.00839558       2.00981621       4.00513287      -0.00812400      -0.00048000       0.00874500 
      47      -0.00033643      -4.01856751       4.00440390       0.00076800       0.00374400       0.00454000 
      47      -6.02766841       2.00876448       4.00441086      -0.00073900      -0.00005600      -0.00067600 
      47      -4.01960926      -4.01961923       4.00368190      -0.00148100       0.00079200      -0.00133000 
      47      -2.00944709      -2.00945684       4.00440622      -0.00023400       0.00005200      -0.00093600 
      47       0.00071508       0.00070554       4.00513055       0.00072400       0.00373500      -0.00485200 
      47      -6.02871992      -2.01050857       4.00368422      -0.00835900      -0.00051600      -0.00997500 
      47      -4.01855775      -0.00034618       4.00440854      -0.00139300       0.00043200      -0.00125900 
      47       0.00156369       2.01071963       6.14074667       0.00107500      -0.00041800       0.00119900 
      47      -6.02787131      -0.00049448       6.13930034       0.00102800      -0.00039800       0.00109400 
      47      -4.01770914       2.00966790       6.14002467       0.00084000       0.00076200       0.00121400 
      47      -2.00964999      -4.01871581       6.13929570       0.00011500      -0.00039000       0.00123200 
      47       0.00051218      -2.00855342       6.14002003       0.00102500      -0.00033200       0.00108700 
      47      -6.02681981       4.01877857       6.14002699       0.00107800       0.00001600       0.00096500 
      47      -4.01876065      -2.00960515       6.13929802       0.00080700       0.00085900       0.00139500 
      47      -2.00859848       0.00055724       6.14002235       0.00009100      -0.00035800       0.00177000 
32
Lattice="-0.0021030131881421 -8.038546101115891 -0.0014532905842798 2.0115584622611746 2.0115864142509157 8.1171714118056 -8.037494152666893 4.0171696013802025 -0.0007173637798159" Properties=Z:I:1:pos:R:3:vasp_force:R:3 uuid=22950655-23d7-4648-83b4-386261b2d09e vasp_virial="0.07338173844581283 -0.1377024672998868 -0.2808683829410352 -0.1377024672998868 0.033621975981484746 -0.17005433066518852 -0.2808683829410352 -0.17005433066518852 -0.20442593496911118" vasp_energy=-128.26613419 pbc="T T T"
      46      -6.02957458      -2.01133425       0.04447727       0.00847800       0.00018900      -0.00705300 
      46      -4.01941241      -0.00117186       0.04520160       0.00144900       0.00202300       0.00433900 
      46      -2.01135326      -6.02955558       0.04447263       0.00847400       0.00006900       0.01544300 
      46      -0.00119109      -4.01939319       0.04519696      -0.00073400      -0.00343000       0.00962700 
      46      -6.02852307       2.00793880       0.04520392       0.00000100      -0.00040400       0.00413700 
      46      -4.02046392      -4.02044491       0.04447495       0.00183000       0.00107700       0.00441500 
      46      -2.01030175      -2.01028253       0.04519928       0.00026900      -0.00039600       0.00480700 
      46      -0.00013958      -0.00012014       0.04592360      -0.00087000      -0.00336800      -0.00104000 
      46       0.00784872      -6.03291278       1.98214396      -0.06256900       0.03079400      -0.00480900 
      46      -6.02842823      -0.00111006       1.98215013       0.00307700       0.00310400      -0.00467800 
      46      -4.01826607       2.00905233       1.98287445       0.00091600      -0.00008300      -0.00469400 
      46      -2.01020691      -4.01933138       1.98214549       0.00953000      -0.01162400      -0.00514400 
      46      -0.00004474      -2.00916900       1.98286981       0.00044800      -0.00218300      -0.00533900 
      46      -6.02947974      -4.02038311       1.98142348       0.01038600      -0.01133500      -0.00473900 
      46      -4.01931757      -2.01022072       1.98214781       0.00094000      -0.00000500      -0.00378400 
      46      -2.00915540      -0.00005833       1.98287213       0.00276600       0.00223700      -0.00513900 
      47      -2.00839558       2.00981621       4.00513287       0.00751900       0.00044000      -0.01034800 
      47      -0.00033643      -4.01856751       4.00440390      -0.00118100      -0.00406300      -0.00498200 
      47      -6.02766841       2.00876448       4.00441086      -0.00059600      -0.00028100      -0.00068000 
      47      -4.01960926      -4.01961923       4.00368190      -0.00079900       0.00041700      -0.00116600 
      47      -2.00944709      -2.00945684       4.00440622      -0.00016900      -0.00004900      -0.00097000 
      47       0.00071508       0.00070554       4.00513055      -0.00121900      -0.00411100       0.00440800 
      47      -6.02871992      -2.01050857       4.00368422       0.00723200       0.00022100       0.00892000 
      47      -4.01855775      -0.00034618       4.00440854      -0.00088700       0.00077900      -0.00124100 
      47       0.00156369       2.01071963       6.14074667       0.00079000      -0.00014900       0.00114200 
      47      -6.02787131      -0.00049448       6.13930034       0.00067300      -0.00008700       0.00122300 
      47      -4.01770914       2.00966790       6.14002467       0.00065300       0.00087800       0.00128800 
      47      -2.00964999      -4.01871581       6.13929570       0.00070300      -0.00033700       0.00143800 
      47       0.00051218      -2.00855342       6.14002003       0.00084100      -0.00023300       0.00126000 
      47      -6.02681981       4.01877857       6.14002699       0.00062500      -0.00050100       0.00135600 
      47      -4.01876065      -2.00960515       6.13929802       0.00069000       0.00077900       0.00110600 
      47      -2.00859848       0.00055724       6.14002235       0.00073300      -0.00037000       0.00089700 
32
Lattice="-0.0021030131881421 -8.038546101115891 -0.0014532905842798 2.0115584622611746 2.0115864142509157 8.1171714118056 -8.037494152666893 4.0171696013802025 -0.0007173637798159" Properties=Z:I:1:pos:R:3:vasp_force:R:3 uuid=da27f97f-ad5c-4e1b-88f7-a256c1979c1f vasp_virial="0.07447180932516581 -0.1372638201592463 -0.27195468022488456 -0.1372638201592463 0.033854393496301746 -0.16232562992599214 -0.27195468022488456 -0.16232562992599214 -0.20339151335386935" vasp_energy=-128.26615849 pbc="T T T"
      46      -6.02957458      -2.01133425       0.04447727      -0.00009400       0.00004600       0.00406800 
      46      -4.01941241      -0.00117186       0.04520160       0.00025700       0.00170600       0.00430400 
      46      -2.01135326      -6.02955558       0.04447263       0.00000000       0.00039600       0.00488000 
      46      -0.00119109      -4.01939319       0.04519696      -0.00020800       0.00098900       0.00434600 
      46      -6.02852307       2.00793880       0.04520392      -0.00013200       0.00004200       0.00388900 
      46      -4.02046392      -4.02044491       0.04447495       0.00037000       0.00173500       0.00449200 
      46      -2.01030175      -2.01028253       0.04519928       0.00001800      -0.00050200       0.00504900 
      46      -0.00013958      -0.00012014       0.04592360      -0.00010400       0.00097200       0.00418600 
      46      -0.00109625      -6.02844205       1.98214317      -0.00010700       0.00021700      -0.00524000 
      46      -6.02842823      -0.00111006       1.98215013      -0.00032700      -0.00058300      -0.00473800 
      46      -4.01826607       2.00905233       1.98287445       0.00013000       0.00086200      -0.00421500 
      46      -2.01020691      -4.01933138       1.98214549      -0.00043500      -0.01008600       0.00433100 
      46      -0.00004474      -2.00916900       1.98286981      -0.00010400      -0.00096300      -0.00524500 
      46      -6.02947974      -4.02038311       1.98142348       0.00005600      -0.00063800      -0.00474300 
      46      -4.01931757      -2.01022072       1.98214781       0.00005700      -0.00033800      -0.00434600 
      46      -2.00915540      -0.00005833       1.98287213      -0.00042100      -0.01027900      -0.01472800 
      47      -2.00839820       1.99981621       4.00513106      -0.00076900       0.06408400      -0.00117500 
      47      -0.00033643      -4.01856751       4.00440390      -0.01073100      -0.00930800      -0.00022400 
      47      -6.02766841       2.00876448       4.00441086      -0.00066100       0.00007800      -0.00066800 
      47      -4.01960926      -4.01961923       4.00368190       0.00942700      -0.00857300      -0.00125900 
      47      -2.00944709      -2.00945684       4.00440622      -0.00019200      -0.00106800      -0.00092800 
      47       0.00071508       0.00070554       4.00513055       0.01072100      -0.00960800      -0.00026100 
      47      -6.02871992      -2.01050857       4.00368422      -0.00065600       0.00007800      -0.00067400 
      47      -4.01855775      -0.00034618       4.00440854      -0.01200400      -0.00878100      -0.00122500 
      47       0.00156369       2.01071963       6.14074667       0.00094300       0.00061800       0.00124400 
      47      -6.02787131      -0.00049448       6.13930034       0.00059200      -0.00033300       0.00115200 
      47      -4.01770914       2.00966790       6.14002467       0.00077300       0.00178500       0.00124200 
      47      -2.00964999      -4.01871581       6.13929570       0.00042100      -0.00584200      -0.00533300 
      47       0.00051218      -2.00855342       6.14002003       0.00092400      -0.00076800       0.00109800 
      47      -6.02681981       4.01877857       6.14002699       0.00111700      -0.00031400       0.00117200 
      47      -4.01876065      -2.00960515       6.13929802       0.00073700       0.00043500       0.00126100 
      47      -2.00859848       0.00055724       6.14002235       0.00040200      -0.00605900       0.00828800 
32
Lattice="-0.0021030131881421 -8.038546101115891 -0.0014532905842798 2.0115584622611746 2.0115864142509157 8.1171714118056 -8.037494152666893 4.0171696013802025 -0.0007173637798159" Properties=Z:I:1:pos:R:3:vasp_force:R:3 uuid=60424e7a-7951-498f-856d-bfd44560cea8 vasp_virial="0.0736992665998586 -0.13742422097933127 -0.2722231060870676 -0.13742422097933127 0.034446894484778896 -0.18560338975505827 -0.2722231060870676 -0.18560338975505827 -0.20354536720170596" vasp_energy=-128.26615985 pbc="T T T"
      46      -6.02957458      -2.01133425       0.04447727      -0.00017500       0.00001600       0.00389100 
      46      -4.01941241      -0.00117186       0.04520160       0.00035900       0.00140700       0.00449000 
      46      -2.01135326      -6.02955558       0.04447263       0.00000400      -0.00019900       0.00502500 
      46      -0.00119109      -4.01939319       0.04519696      -0.00016500       0.00091600       0.00418700 
      46      -6.02852307       2.00793880       0.04520392      -0.00013600       0.00001900       0.00406900 
      46      -4.02046392      -4.02044491       0.04447495       0.00024600       0.00137500       0.00431600 
      46      -2.01030175      -2.01028253       0.04519928      -0.00001300       0.00070100       0.00484300 
      46      -0.00013958      -0.00012014       0.04592360      -0.00026500       0.00093700       0.00434600 
      46      -0.00109625      -6.02844205       1.98214317      -0.00015600      -0.00185000      -0.00525900 
      46      -6.02842823      -0.00111006       1.98215013       0.00001900      -0.00058200      -0.00472500 
      46      -4.01826607       2.00905233       1.98287445       0.00001400      -0.00094300      -0.00430900 
      46      -2.01020691      -4.01933138       1.98214549      -0.00046000       0.00750400      -0.01476100 
      46      -0.00004474      -2.00916900       1.98286981      -0.00012100      -0.00067000      -0.00529200 
      46      -6.02947974      -4.02038311       1.98142348      -0.00036400      -0.00052800      -0.00471900 
      46      -4.01931757      -2.01022072       1.98214781       0.00004900       0.00025700      -0.00421500 
      46      -2.00915540      -0.00005833       1.98287213      -0.00047400       0.00718600       0.00429800 
      47      -2.00839297       2.01981621       4.00513467       0.00068400      -0.06442400      -0.00090700 
      47      -0.00033643      -4.01856751       4.00440390       0.01061000       0.00924100      -0.00026500 
      47      -6.02766841       2.00876448       4.00441086      -0.00069600      -0.00038600      -0.00068500 
      47      -4.01960926      -4.01961923       4.00368190      -0.01210700       0.01006700      -0.00123900 
      47      -2.00944709      -2.00945684       4.00440622      -0.00024100       0.00110100      -0.00097300 
      47       0.00071508       0.00070554       4.00513055      -0.01083700       0.00903300      -0.00022900 
      47      -6.02871992      -2.01050857       4.00368422      -0.00071800      -0.00038600      -0.00067800 
      47      -4.01855775      -0.00034618       4.00440854       0.00932800       0.00976700      -0.00127300 
      47       0.00156369       2.01071963       6.14074667       0.00087300      -0.00115400       0.00109200 
      47      -6.02787131      -0.00049448       6.13930034       0.00107800      -0.00012100       0.00117300 
      47      -4.01770914       2.00966790       6.14002467       0.00071000      -0.00011600       0.00124800 
      47      -2.00964999      -4.01871581       6.13929570       0.00037000       0.00530800       0.00825500 
      47       0.00051218      -2.00855342       6.14002003       0.00091300       0.00023300       0.00125700 
      47      -6.02681981       4.01877857       6.14002699       0.00055400      -0.00014000       0.00115500 
      47      -4.01876065      -2.00960515       6.13929802       0.00072500       0.00123400       0.00124900 
      47      -2.00859848       0.00055724       6.14002235       0.00038900       0.00519800      -0.00536400 
32
Lattice="-0.0021030131881421 -8.038546101115891 -0.0014532905842798 2.0115584622611746 2.0115864142509157 8.1171714118056 -8.037494152666893 4.0171696013802025 -0.0007173637798159" Properties=Z:I:1:pos:R:3:vasp_force:R:3 uuid=0569c73d-aa7b-49ec-ac3b-f55d7a6c11b5 vasp_virial="0.05924355187546596 -0.13688409576884103 -0.2746062039854729 -0.13688409576884103 0.018770169436065968 -0.17632305659299916 -0.2746062039854729 -0.17632305659299916 -0.22440074729887652" vasp_energy=-128.2661761 pbc="T T T"
      46      -6.02957458      -2.01133425       0.04447727      -0.00060800      -0.00018700       0.00426600 
      46      -4.01941241      -0.00117186       0.04520160       0.00032600       0.00163100       0.00464400 
      46      -2.01135326      -6.02955558       0.04447263       0.00012100       0.00018700       0.00563700 
      46      -0.00119109      -4.01939319       0.04519696      -0.00021400       0.00081700       0.00421400 
      46      -6.02852307       2.00793880       0.04520392       0.00017000       0.00023000       0.00443700 
      46      -4.02046392      -4.02044491       0.04447495       0.00031600       0.00138800       0.00428500 
      46      -2.01030175      -2.01028253       0.04519928       0.00007800       0.00006400       0.00545300 
      46      -0.00013958      -0.00012014       0.04592360      -0.00028700       0.00107600       0.00430100 
      46      -0.00109625      -6.02844205       1.98214317      -0.00803100      -0.00105900       0.00098200 
      46      -6.02842823      -0.00111006       1.98215013       0.00000600      -0.00053600      -0.00473300 
      46      -4.01826607       2.00905233       1.98287445       0.01176400      -0.00032700       0.00629500 
      46      -2.01020691      -4.01933138       1.98214549      -0.00079200      -0.00926300       0.00136100 
      46      -0.00004474      -2.00916900       1.98286981      -0.00010200      -0.00078000      -0.00519000 
      46      -6.02947974      -4.02038311       1.98142348      -0.00002000      -0.00059900      -0.00458500 
      46      -4.01931757      -2.01022072       1.98214781       0.00014000       0.00014300      -0.00411100 
      46      -2.00915540      -0.00005833       1.98287213      -0.00072900       0.01032800       0.00551600 
      47      -2.00605690       2.01215492       4.01457008      -0.01475100      -0.01498100      -0.05577500 
      47      -0.00033643      -4.01856751       4.00440390       0.00445200       0.00450100      -0.00184600 
      47      -6.02766841       2.00876448       4.00441086      -0.00047000      -0.00021200      -0.00096200 
      47      -4.01960926      -4.01961923       4.00368190      -0.00146300       0.00027800      -0.00284900 
      47      -2.00944709      -2.00945684       4.00440622      -0.00033200       0.00024700      -0.00136300 
      47       0.00071508       0.00070554       4.00513055      -0.00059100      -0.00046300      -0.00184600 
      47      -6.02871992      -2.01050857       4.00368422      -0.00066600      -0.00021600      -0.00091600 
      47      -4.01855775      -0.00034618       4.00440854       0.00348500       0.00525200      -0.00279600 
      47       0.00156369       2.01071963       6.14074667       0.00881200      -0.00056600       0.00911500 
      47      -6.02787131      -0.00049448       6.13930034       0.00101100      -0.00013100       0.00122300 
      47      -4.01770914       2.00966790       6.14002467      -0.00449200       0.00060500       0.00593200 
      47      -2.00964999      -4.01871581       6.13929570       0.00012900       0.00753900       0.00927100 
      47       0.00051218      -2.00855342       6.14002003       0.00106400      -0.00007200       0.00138100 
      47      -6.02681981       4.01877857       6.14002699       0.00092400      -0.00027600       0.00128000 
      47      -4.01876065      -2.00960515       6.13929802       0.00061200       0.00092500       0.00129600 
      47      -2.00859848       0.00055724       6.14002235       0.00013600      -0.00554200       0.00608500 
32
Lattice="-0.0021030131881421 -8.038546101115891 -0.0014532905842798 2.0115584622611746 2.0115864142509157 8.1171714118056 -8.037494152666893 4.0171696013802025 -0.0007173637798159" Properties=Z:I:1:pos:R:3:vasp_force:R:3 uuid=c4f90672-451e-4461-8796-1d8e73ed7a52 vasp_virial="0.0885477996591532 -0.1374340414377038 -0.2695748558126035 -0.1374340414377038 0.04926269268283166 -0.17057481495893362 -0.2695748558126035 -0.17057481495893362 -0.1819370852959732" vasp_energy=-128.2661916 pbc="T T T"
      46      -6.02957458      -2.01133425       0.04447727       0.00034700       0.00025700       0.00367400 
      46      -4.01941241      -0.00117186       0.04520160       0.00029500       0.00148500       0.00412700 
      46      -2.01135326      -6.02955558       0.04447263      -0.00010700       0.00001900       0.00425800 
      46      -0.00119109      -4.01939319       0.04519696      -0.00015400       0.00109900       0.00430400 
      46      -6.02852307       2.00793880       0.04520392      -0.00043700      -0.00016100       0.00350300 
      46      -4.02046392      -4.02044491       0.04447495       0.00030600       0.00173300       0.00450200 
      46      -2.01030175      -2.01028253       0.04519928      -0.00006300       0.00013600       0.00442600 
      46      -0.00013958      -0.00012014       0.04592360      -0.00007100       0.00083600       0.00421200 