  32
   1   1
     5.518370778091634    -0.361408699450896     0.058696315317449
    -0.364055890616505     5.410675050819163    -0.010695546306594
     0.086652919119732     0.029905123622503     5.980538546171069
   1   2
    -0.626462865033707    -0.668371429692949    -0.051082718375566
    -0.622133502408777    -0.672765840209778    -0.048299942653865
     0.024639743605975     0.052646586935845    -0.034116266033238
   1   3
    -0.077028182970043    -0.127998320148802    -0.027262221468058
    -0.163567557593128    -0.033390032161499    -0.026657262879500
     0.044128454118514     0.024538022871803     0.071357504512593
   1   4
    -0.626462865033707    -0.668371429692949    -0.051082718375566
    -0.622133502408777    -0.672765840209778    -0.048299942653865
     0.024639743605975     0.052646586935845    -0.034116266033238
   1   5
     0.059095174282800     0.072369789171630     0.053782305035198
     0.064937305062069     0.082391768945723     0.018442552637776
    -0.017064373146631    -0.056992510298077    -0.013472331617736
   1   6
     0.059095174282800     0.072369789171630     0.053782305035198
     0.064937305062069     0.082391768945723     0.018442552637776
    -0.017064373146631    -0.056992510298077    -0.013472331617736
   1   7
     0.075516856746824     0.074582038172991     0.014331213042840
     0.067200393351333     0.071747176358001     0.051099325870609
    -0.056563227620034    -0.024361711845404    -0.012899543543966
   1   8
     0.075516856746824     0.074582038172991     0.014331213042840
     0.067200393351333     0.071747176358001     0.051099325870609
    -0.056563227620034    -0.024361711845404    -0.012899543543966
   1   9
    -0.714004777811659     0.691064380580709    -0.049016545267920
     0.736085864573402    -0.758675093695897    -0.047045049819508
     0.011218058115788     0.036971748099357     0.081765404846942
   1  10
    -0.138147391590268    -0.019521610852594    -0.034245537649429
    -0.075590399886466    -0.002866440233221    -0.027496817339982
     0.025273937008823     0.017705211841664     0.036773834804421
   1  11
    -0.714004777811659     0.691064380580709    -0.049016545267920
     0.736085864573402    -0.758675093695897    -0.047045049819508
     0.011218058115788     0.036971748099357     0.081765404846942
   1  12
    -0.043534611469435    -0.036747935971729    -0.026035369218308
    -0.053062395066543    -0.111872398850060    -0.028757082039786
     0.036870718346165     0.011101386059023     0.033975077018519
   1  13
     0.044593447158571     0.047669564429978     0.051830603118304
     0.039733635963185     0.054771998427460     0.053573629707188
    -0.008970734708164    -0.010572564780001    -0.046070847714951
   1  14
     0.040654416605839     0.041184475365439     0.017177699319093
     0.033518937811197     0.050286405852247     0.022021667775706
    -0.037427558025484    -0.039617167791604    -0.023629077030744
   1  15
     0.040654416605839     0.041184475365439     0.017177699319093
     0.033518937811197     0.050286405852247     0.022021667775706
    -0.037427558025484    -0.039617167791604    -0.023629077030744
   1  16
     0.044593447158571     0.047669564429978     0.051830603118304
     0.039733635963185     0.054771998427460     0.053573629707188
    -0.008970734708164    -0.010572564780001    -0.046070847714951
   1  17
     0.053728567247978     0.010275306410008    -0.026027018620094
    -0.005851307347682    -0.756385460933405     0.792850340273082
     0.000812897937393     0.801193722398010    -0.730751834398656
   1  18
    -0.795766670300805    -0.022054883853403    -0.814847080511117
    -0.014789493207559     0.053605961721349    -0.000509932204373
    -0.823882323553151    -0.010818699624834    -0.764207511714168
   1  19
    -0.009125045006747     0.024028811271815     0.004470379666307
     0.015777749831267     0.007934939853345    -0.016445129902231
     0.009716026172163    -0.009513246907276     0.005526761427171
   1  20
    -0.008359361782570    -0.002841972460087     0.012520887291985
     0.011598604132523    -0.037281758500569     0.015512115368993
    -0.002169152545182     0.009469569050653    -0.016591164951863
   1  21
     0.053728567247978     0.010275306410008    -0.026027018620094
    -0.005851307347682    -0.756385460933405     0.792850340273082
     0.000812897937393     0.801193722398010    -0.730751834398656
   1  22
    -0.008359361782570    -0.002841972460087     0.012520887291985
     0.011598604132523    -0.037281758500569     0.015512115368993
    -0.002169152545182     0.009469569050653    -0.016591164951863
   1  23
    -0.009125045006747     0.024028811271815     0.004470379666307
     0.015777749831267     0.007934939853345    -0.016445129902231
     0.009716026172163    -0.009513246907276     0.005526761427171
   1  24
    -0.795766670300805    -0.022054883853403    -0.814847080511117
    -0.014789493207559     0.053605961721349    -0.000509932204373
    -0.823882323553151    -0.010818699624834    -0.764207511714168
   1  25
    -0.788172481106017    -0.025717517846965     0.838064778340584
    -0.010652116221205     0.038076886539258     0.006697328556013
     0.827606824218672     0.012289055084196    -0.767219224971529
   1  26
     0.071759349074023     0.007865025474983    -0.030051069573659
    -0.004386304944809    -0.754931916465094    -0.819748231145287
    -0.023405532933762    -0.811638307905538    -0.726628372494924
   1  27
    -0.011297980808385    -0.004699485361656     0.011235924226791
     0.003761144865554    -0.020909365668067     0.033616045905185
     0.000588652407223     0.019223857645621    -0.010042112030957
   1  28
    -0.021988425256590     0.027484191540283    -0.017966448576760
     0.013337207551530     0.010859207883144    -0.014961863532058
    -0.001562186347152    -0.009907311316276    -0.002986084968893
   1  29
    -0.011297980808385    -0.004699485361656     0.011235924226791
     0.003761144865554    -0.020909365668067     0.033616045905185
     0.000588652407223     0.019223857645621    -0.010042112030957
   1  30
     0.071759349074023     0.007865025474983    -0.030051069573659
    -0.004386304944809    -0.754931916465094    -0.819748231145287
    -0.023405532933762    -0.811638307905538    -0.726628372494924
   1  31
    -0.788172481106017    -0.025717517846965     0.838064778340584
    -0.010652116221205     0.038076886539258     0.006697328556013
     0.827606824218672     0.012289055084196    -0.767219224971529
   1  32
    -0.021988425256590     0.027484191540283    -0.017966448576760
     0.013337207551530     0.010859207883144    -0.014961863532058
    -0.001562186347152    -0.009907311316276    -0.002986084968893
   2   1
    -0.626462865033707    -0.668371429692949    -0.051082718375566
    -0.622133502408777    -0.672765840209778    -0.048299942653865
     0.024639743605975     0.052646586935845    -0.034116266033238
   2   2
     5.518370778091633    -0.361408699450896     0.058696315317449
    -0.364055890616505     5.410675050819163    -0.010695546306594
     0.086652919119732     0.029905123622503     5.980538546171072
   2   3
    -0.626462865033707    -0.668371429692949    -0.051082718375566
    -0.622133502408777    -0.672765840209778    -0.048299942653865
     0.024639743605975     0.052646586935845    -0.034116266033238
   2   4
    -0.077028182970043    -0.127998320148802    -0.027262221468058
    -0.163567557593128    -0.033390032161499    -0.026657262879500
     0.044128454118514     0.024538022871803     0.071357504512593
   2   5
     0.075516856746824     0.074582038172991     0.014331213042840
     0.067200393351333     0.071747176358001     0.051099325870609
    -0.056563227620034    -0.024361711845404    -0.012899543543966
   2   6
     0.059095174282800     0.072369789171630     0.053782305035198
     0.064937305062069     0.082391768945723     0.018442552637776
    -0.017064373146631    -0.056992510298077    -0.013472331617736
   2   7
     0.059095174282800     0.072369789171630     0.053782305035198
     0.064937305062069     0.082391768945723     0.018442552637776
    -0.017064373146631    -0.056992510298077    -0.013472331617736
   2   8
     0.075516856746824     0.074582038172991     0.014331213042840
     0.067200393351333     0.071747176358001     0.051099325870609
    -0.056563227620034    -0.024361711845404    -0.012899543543966
   2   9
    -0.043534611469435    -0.036747935971729    -0.026035369218308
    -0.053062395066543    -0.111872398850060    -0.028757082039786
     0.036870718346165     0.011101386059023     0.033975077018519
   2  10
    -0.714004777811659     0.691064380580709    -0.049016545267920
     0.736085864573402    -0.758675093695896    -0.047045049819508
     0.011218058115788     0.036971748099357     0.081765404846942
   2  11
    -0.138147391590267    -0.019521610852594    -0.034245537649429
    -0.075590399886466    -0.002866440233221    -0.027496817339982
     0.025273937008823     0.017705211841664     0.036773834804421
   2  12
    -0.714004777811659     0.691064380580709    -0.049016545267920
     0.736085864573402    -0.758675093695896    -0.047045049819508
     0.011218058115788     0.036971748099357     0.081765404846942
   2  13
     0.044593447158571     0.047669564429978     0.051830603118304
     0.039733635963185     0.054771998427459     0.053573629707188
    -0.008970734708164    -0.010572564780001    -0.046070847714951
   2  14
     0.044593447158571     0.047669564429978     0.051830603118304
     0.039733635963185     0.054771998427459     0.053573629707188
    -0.008970734708164    -0.010572564780001    -0.046070847714951
   2  15
     0.040654416605839     0.041184475365439     0.017177699319093
     0.033518937811197     0.050286405852247     0.022021667775706
    -0.037427558025484    -0.039617167791604    -0.023629077030744
   2  16
     0.040654416605839     0.041184475365439     0.017177699319093
     0.033518937811197     0.050286405852247     0.022021667775706
    -0.037427558025484    -0.039617167791604    -0.023629077030744
   2  17
    -0.008359361782570    -0.002841972460087     0.012520887291985
     0.011598604132523    -0.037281758500569     0.015512115368993
    -0.002169152545182     0.009469569050653    -0.016591164951863
   2  18
     0.053728567247978     0.010275306410008    -0.026027018620094
    -0.005851307347682    -0.756385460933405     0.792850340273082
     0.000812897937393     0.801193722398010    -0.730751834398656
   2  19
    -0.795766670300805    -0.022054883853403    -0.814847080511117
    -0.014789493207559     0.053605961721349    -0.000509932204373
    -0.823882323553151    -0.010818699624834    -0.764207511714168
   2  20
    -0.009125045006747     0.024028811271815     0.004470379666307
     0.015777749831267     0.007934939853345    -0.016445129902231
     0.009716026172163    -0.009513246907276     0.005526761427171
   2  21
    -0.795766670300805    -0.022054883853403    -0.814847080511117
    -0.014789493207559     0.053605961721349    -0.000509932204373
    -0.823882323553151    -0.010818699624834    -0.764207511714168
   2  22
     0.053728567247978     0.010275306410008    -0.026027018620094
    -0.005851307347682    -0.756385460933405     0.792850340273082
     0.000812897937393     0.801193722398010    -0.730751834398656
   2  23
    -0.008359361782570    -0.002841972460087     0.012520887291985
     0.011598604132523    -0.037281758500569     0.015512115368993
    -0.002169152545182     0.009469569050653    -0.016591164951863
   2  24
    -0.009125045006747     0.024028811271815     0.004470379666307
     0.015777749831267     0.007934939853345    -0.016445129902231
     0.009716026172163    -0.009513246907276     0.005526761427171
   2  25
    -0.021988425256590     0.027484191540283    -0.017966448576760
     0.013337207551530     0.010859207883144    -0.014961863532058
    -0.001562186347152    -0.009907311316276    -0.002986084968893
   2  26
    -0.788172481106016    -0.025717517846965     0.838064778340584
    -0.010652116221205     0.038076886539258     0.006697328556013
     0.827606824218672     0.012289055084196    -0.767219224971530
   2  27
     0.071759349074023     0.007865025474983    -0.030051069573659
    -0.004386304944809    -0.754931916465093    -0.819748231145287
    -0.023405532933762    -0.811638307905538    -0.726628372494924
   2  28
    -0.011297980808385    -0.004699485361656     0.011235924226791
     0.003761144865554    -0.020909365668067     0.033616045905185
     0.000588652407223     0.019223857645621    -0.010042112030957
   2  29
    -0.021988425256590     0.027484191540283    -0.017966448576760
     0.013337207551530     0.010859207883144    -0.014961863532058
    -0.001562186347152    -0.009907311316276    -0.002986084968893
   2  30
    -0.011297980808385    -0.004699485361656     0.011235924226791
     0.003761144865554    -0.020909365668067     0.033616045905185
     0.000588652407223     0.019223857645621    -0.010042112030957
   2  31
     0.071759349074023     0.007865025474983    -0.030051069573659
    -0.004386304944809    -0.754931916465093    -0.819748231145287
    -0.023405532933762    -0.811638307905538    -0.726628372494924
   2  32
    -0.788172481106016    -0.025717517846965     0.838064778340584
    -0.010652116221205     0.038076886539258     0.006697328556013
     0.827606824218672     0.012289055084196    -0.767219224971529
   3   1
    -0.077028182970043    -0.127998320148802    -0.027262221468058
    -0.163567557593128    -0.033390032161499    -0.026657262879500
     0.044128454118514     0.024538022871803     0.071357504512593
   3   2
    -0.626462865033707    -0.668371429692949    -0.051082718375566
    -0.622133502408777    -0.672765840209778    -0.048299942653865
     0.024639743605975     0.052646586935845    -0.034116266033238
   3   3
     5.518370778091633    -0.361408699450896     0.058696315317449
    -0.364055890616505     5.410675050819163    -0.010695546306594
     0.086652919119732     0.029905123622503     5.980538546171072
   3   4
    -0.626462865033707    -0.668371429692949    -0.051082718375566
    -0.622133502408777    -0.672765840209778    -0.048299942653865
     0.024639743605975     0.052646586935845    -0.034116266033238
   3   5
     0.075516856746824     0.074582038172991     0.014331213042840
     0.067200393351333     0.071747176358001     0.051099325870609
    -0.056563227620034    -0.024361711845404    -0.012899543543966
   3   6
     0.075516856746824     0.074582038172991     0.014331213042840
     0.067200393351333     0.071747176358001     0.051099325870609
    -0.056563227620034    -0.024361711845404    -0.012899543543966
   3   7
     0.059095174282800     0.072369789171630     0.053782305035198
     0.064937305062069     0.082391768945723     0.018442552637776
    -0.017064373146631    -0.056992510298077    -0.013472331617736
   3   8
     0.059095174282800     0.072369789171630     0.053782305035198
     0.064937305062069     0.082391768945723     0.018442552637776
    -0.017064373146631    -0.056992510298077    -0.013472331617736
   3   9
    -0.714004777811659     0.691064380580709    -0.049016545267920
     0.736085864573402    -0.758675093695896    -0.047045049819508
     0.011218058115788     0.036971748099357     0.081765404846942
   3  10
    -0.043534611469435    -0.036747935971729    -0.026035369218308
    -0.053062395066543    -0.111872398850060    -0.028757082039786
     0.036870718346165     0.011101386059023     0.033975077018519
   3  11
    -0.714004777811659     0.691064380580709    -0.049016545267920
     0.736085864573402    -0.758675093695896    -0.047045049819508
     0.011218058115788     0.036971748099357     0.081765404846942
   3  12
    -0.138147391590267    -0.019521610852594    -0.034245537649429
    -0.075590399886466    -0.002866440233221    -0.027496817339982
     0.025273937008823     0.017705211841664     0.036773834804421
   3  13
     0.040654416605839     0.041184475365439     0.017177699319093
     0.033518937811197     0.050286405852247     0.022021667775706
    -0.037427558025484    -0.039617167791604    -0.023629077030744
   3  14
     0.044593447158571     0.047669564429978     0.051830603118304
     0.039733635963185     0.054771998427459     0.053573629707188
    -0.008970734708164    -0.010572564780001    -0.046070847714951
   3  15
     0.044593447158571     0.047669564429978     0.051830603118304
     0.039733635963185     0.054771998427459     0.053573629707188
    -0.008970734708164    -0.010572564780001    -0.046070847714951
   3  16
     0.040654416605839     0.041184475365439     0.017177699319093
     0.033518937811197     0.050286405852247     0.022021667775706
    -0.037427558025484    -0.039617167791604    -0.023629077030744
   3  17
    -0.009125045006747     0.024028811271815     0.004470379666307
     0.015777749831267     0.007934939853345    -0.016445129902231
     0.009716026172163    -0.009513246907276     0.005526761427171
   3  18
    -0.008359361782570    -0.002841972460087     0.012520887291985
     0.011598604132523    -0.037281758500569     0.015512115368993
    -0.002169152545182     0.009469569050653    -0.016591164951863
   3  19
     0.053728567247978     0.010275306410008    -0.026027018620094
    -0.005851307347682    -0.756385460933405     0.792850340273082
     0.000812897937393     0.801193722398010    -0.730751834398656
   3  20
    -0.795766670300805    -0.022054883853403    -0.814847080511117
    -0.014789493207559     0.053605961721349    -0.000509932204373
    -0.823882323553151    -0.010818699624834    -0.764207511714168
   3  21
    -0.009125045006747     0.024028811271815     0.004470379666307
     0.015777749831267     0.007934939853345    -0.016445129902231
     0.009716026172163    -0.009513246907276     0.005526761427171
   3  22
    -0.795766670300805    -0.022054883853403    -0.814847080511117
    -0.014789493207559     0.053605961721349    -0.000509932204373
    -0.823882323553151    -0.010818699624834    -0.764207511714168
   3  23
     0.053728567247978     0.010275306410008    -0.026027018620094
    -0.005851307347682    -0.756385460933405     0.792850340273082
     0.000812897937393     0.801193722398010    -0.730751834398656
   3  24
    -0.008359361782570    -0.002841972460087     0.012520887291985
     0.011598604132523    -0.037281758500569     0.015512115368993
    -0.002169152545182     0.009469569050653    -0.016591164951863
   3  25
    -0.011297980808385    -0.004699485361656     0.011235924226791
     0.003761144865554    -0.020909365668067     0.033616045905185
     0.000588652407223     0.019223857645621    -0.010042112030957
   3  26
    -0.021988425256590     0.027484191540283    -0.017966448576760
     0.013337207551530     0.010859207883144    -0.014961863532058
    -0.001562186347152    -0.009907311316276    -0.002986084968893
   3  27
    -0.788172481106016    -0.025717517846965     0.838064778340584
    -0.010652116221205     0.038076886539258     0.006697328556013
     0.827606824218672     0.012289055084196    -0.767219224971529
   3  28
     0.071759349074023     0.007865025474983    -0.030051069573659
    -0.004386304944809    -0.754931916465093    -0.819748231145287
    -0.023405532933762    -0.811638307905538    -0.726628372494924
   3  29
    -0.788172481106016    -0.025717517846965     0.838064778340584
    -0.010652116221205     0.038076886539258     0.006697328556013
     0.827606824218672     0.012289055084196    -0.767219224971530
   3  30
    -0.021988425256590     0.027484191540283    -0.017966448576760
     0.013337207551530     0.010859207883144    -0.014961863532058
    -0.001562186347152    -0.009907311316276    -0.002986084968893
   3  31
    -0.011297980808385    -0.004699485361656     0.011235924226791
     0.003761144865554    -0.020909365668067     0.033616045905185
     0.000588652407223     0.019223857645621    -0.010042112030957
   3  32
     0.071759349074023     0.007865025474983    -0.030051069573659
    -0.004386304944809    -0.754931916465093    -0.819748231145287
    -0.023405532933762    -0.811638307905538    -0.726628372494924
   4   1
    -0.626462865033707    -0.668371429692949    -0.051082718375566
    -0.622133502408777    -0.672765840209778    -0.048299942653865
     0.024639743605975     0.052646586935845    -0.034116266033238
   4   2
    -0.077028182970043    -0.127998320148802    -0.027262221468058
    -0.163567557593128    -0.033390032161499    -0.026657262879500
     0.044128454118514     0.024538022871803     0.071357504512593
   4   3
    -0.626462865033707    -0.668371429692949    -0.051082718375566
    -0.622133502408777    -0.672765840209778    -0.048299942653865
     0.024639743605975     0.052646586935845    -0.034116266033238
   4   4
     5.518370778091633    -0.361408699450896     0.058696315317449
    -0.364055890616505     5.410675050819163    -0.010695546306594
     0.086652919119732     0.029905123622503     5.980538546171072
   4   5
     0.059095174282800     0.072369789171630     0.053782305035198
     0.064937305062069     0.082391768945723     0.018442552637776
    -0.017064373146631    -0.056992510298077    -0.013472331617736
   4   6
     0.075516856746824     0.074582038172991     0.014331213042840
     0.067200393351333     0.071747176358001     0.051099325870609
    -0.056563227620034    -0.024361711845404    -0.012899543543966
   4   7
     0.075516856746824     0.074582038172991     0.014331213042840
     0.067200393351333     0.071747176358001     0.051099325870609
    -0.056563227620034    -0.024361711845404    -0.012899543543966
   4   8
     0.059095174282800     0.072369789171630     0.053782305035198
     0.064937305062069     0.082391768945723     0.018442552637776
    -0.017064373146631    -0.056992510298077    -0.013472331617736
   4   9
    -0.138147391590267    -0.019521610852594    -0.034245537649429
    -0.075590399886466    -0.002866440233221    -0.027496817339982
     0.025273937008823     0.017705211841664     0.036773834804421
   4  10
    -0.714004777811659     0.691064380580709    -0.049016545267920
     0.736085864573402    -0.758675093695896    -0.047045049819508
     0.011218058115788     0.036971748099357     0.081765404846942
   4  11
    -0.043534611469435    -0.036747935971729    -0.026035369218308
    -0.053062395066543    -0.111872398850060    -0.028757082039786
     0.036870718346165     0.011101386059023     0.033975077018519
   4  12
    -0.714004777811659     0.691064380580709    -0.049016545267920
     0.736085864573402    -0.758675093695896    -0.047045049819508
     0.011218058115788     0.036971748099357     0.081765404846942
   4  13
     0.040654416605839     0.041184475365439     0.017177699319093
     0.033518937811197     0.050286405852247     0.022021667775706
    -0.037427558025484    -0.039617167791604    -0.023629077030744
   4  14
     0.040654416605839     0.041184475365439     0.017177699319093
     0.033518937811197     0.050286405852247     0.022021667775706
    -0.037427558025484    -0.039617167791604    -0.023629077030744
   4  15
     0.044593447158571     0.047669564429978     0.051830603118304
     0.039733635963185     0.054771998427459     0.053573629707188
    -0.008970734708164    -0.010572564780001    -0.046070847714951
   4  16
     0.044593447158571     0.047669564429978     0.051830603118304
     0.039733635963185     0.054771998427459     0.053573629707188
    -0.008970734708164    -0.010572564780001    -0.046070847714951
   4  17
    -0.795766670300805    -0.022054883853403    -0.814847080511117
    -0.014789493207559     0.053605961721349    -0.000509932204373
    -0.823882323553151    -0.010818699624834    -0.764207511714168
   4  18
    -0.009125045006747     0.024028811271815     0.004470379666307
     0.015777749831267     0.007934939853345    -0.016445129902231
     0.009716026172163    -0.009513246907276     0.005526761427171
   4  19
    -0.008359361782570    -0.002841972460087     0.012520887291985
     0.011598604132523    -0.037281758500569     0.015512115368993
    -0.002169152545182     0.009469569050653    -0.016591164951863
   4  20
     0.053728567247978     0.010275306410008    -0.026027018620094
    -0.005851307347682    -0.756385460933405     0.792850340273082
     0.000812897937393     0.801193722398010    -0.730751834398656
   4  21
    -0.008359361782570    -0.002841972460087     0.012520887291985
     0.011598604132523    -0.037281758500569     0.015512115368993
    -0.002169152545182     0.009469569050653    -0.016591164951863
   4  22
    -0.009125045006747     0.024028811271815     0.004470379666307
     0.015777749831267     0.007934939853345    -0.016445129902231
     0.009716026172163    -0.009513246907276     0.005526761427171
   4  23
    -0.795766670300805    -0.022054883853403    -0.814847080511117
    -0.014789493207559     0.053605961721349    -0.000509932204373
    -0.823882323553151    -0.010818699624834    -0.764207511714168
   4  24
     0.053728567247978     0.010275306410008    -0.026027018620094
    -0.005851307347682    -0.756385460933405     0.792850340273082
     0.000812897937393     0.801193722398010    -0.730751834398656
   4  25
     0.071759349074023     0.007865025474983    -0.030051069573659
    -0.004386304944809    -0.754931916465093    -0.819748231145287
    -0.023405532933762    -0.811638307905538    -0.726628372494924
   4  26
    -0.011297980808385    -0.004699485361656     0.011235924226791
     0.003761144865554    -0.020909365668067     0.033616045905185
     0.000588652407223     0.019223857645621    -0.010042112030957
   4  27
    -0.021988425256590     0.027484191540283    -0.017966448576760
     0.013337207551530     0.010859207883144    -0.014961863532058
    -0.001562186347152    -0.009907311316276    -0.002986084968893
   4  28
    -0.788172481106016    -0.025717517846965     0.838064778340584
    -0.010652116221205     0.038076886539258     0.006697328556013
     0.827606824218672     0.012289055084196    -0.767219224971529
   4  29
     0.071759349074023     0.007865025474983    -0.030051069573659
    -0.004386304944809    -0.754931916465093    -0.819748231145287
    -0.023405532933762    -0.811638307905538    -0.726628372494924
   4  30
    -0.788172481106016    -0.025717517846965     0.838064778340584
    -0.010652116221205     0.038076886539258     0.006697328556013
     0.827606824218672     0.012289055084196    -0.767219224971530
   4  31
    -0.021988425256590     0.027484191540283    -0.017966448576760
     0.013337207551530     0.010859207883144    -0.014961863532058
    -0.001562186347152    -0.009907311316276    -0.002986084968893
   4  32
    -0.011297980808385    -0.004699485361656     0.011235924226791
     0.003761144865554    -0.020909365668067     0.033616045905185
     0.000588652407223     0.019223857645621    -0.010042112030957
   5   1
     0.059095174282800     0.072369789171630     0.053782305035198
     0.064937305062069     0.082391768945723     0.018442552637776
    -0.017064373146631    -0.056992510298077    -0.013472331617736
   5   2
     0.075516856746824     0.074582038172991     0.014331213042840
     0.067200393351333     0.071747176358001     0.051099325870609
    -0.056563227620034    -0.024361711845404    -0.012899543543966
   5   3
     0.075516856746824     0.074582038172991     0.014331213042840
     0.067200393351333     0.071747176358001     0.051099325870609
    -0.056563227620034    -0.024361711845404    -0.012899543543966
   5   4
     0.059095174282800     0.072369789171630     0.053782305035198
     0.064937305062069     0.082391768945723     0.018442552637776
    -0.017064373146631    -0.056992510298077    -0.013472331617736
   5   5
     5.518370778091633    -0.361408699450896     0.058696315317449
    -0.364055890616505     5.410675050819163    -0.010695546306594
     0.086652919119732     0.029905123622503     5.980538546171072
   5   6
    -0.626462865033707    -0.668371429692949    -0.051082718375566
    -0.622133502408777    -0.672765840209778    -0.048299942653865
     0.024639743605975     0.052646586935845    -0.034116266033238
   5   7
    -0.077028182970043    -0.127998320148802    -0.027262221468058
    -0.163567557593128    -0.033390032161499    -0.026657262879500
     0.044128454118514     0.024538022871803     0.071357504512593
   5   8
    -0.626462865033707    -0.668371429692949    -0.051082718375566
    -0.622133502408777    -0.672765840209778    -0.048299942653865
     0.024639743605975     0.052646586935845    -0.034116266033238
   5   9
     0.040654416605839     0.041184475365439     0.017177699319093
     0.033518937811197     0.050286405852247     0.022021667775706
    -0.037427558025484    -0.039617167791604    -0.023629077030744
   5  10
     0.040654416605839     0.041184475365439     0.017177699319093
     0.033518937811197     0.050286405852247     0.022021667775706
    -0.037427558025484    -0.039617167791604    -0.023629077030744
   5  11
     0.044593447158571     0.047669564429978     0.051830603118304
     0.039733635963185     0.054771998427459     0.053573629707188
    -0.008970734708164    -0.010572564780001    -0.046070847714951
   5  12
     0.044593447158571     0.047669564429978     0.051830603118304
     0.039733635963185     0.054771998427459     0.053573629707188
    -0.008970734708164    -0.010572564780001    -0.046070847714951
   5  13
    -0.714004777811659     0.691064380580709    -0.049016545267920
     0.736085864573402    -0.758675093695896    -0.047045049819508
     0.011218058115788     0.036971748099357     0.081765404846942
   5  14
    -0.138147391590267    -0.019521610852594    -0.034245537649429
    -0.075590399886466    -0.002866440233221    -0.027496817339982
     0.025273937008823     0.017705211841664     0.036773834804421
   5  15
    -0.714004777811659     0.691064380580709    -0.049016545267920
     0.736085864573402    -0.758675093695896    -0.047045049819508