32
Lattice="-8.217251337915155 -0.0424389414517363 0.0013208343669515 -0.0423788126316586 -8.242537087618256 0.0001066441835158 -2.066351301656502 -2.071306323197759 8.03865800066186" Properties=Z:I:1:pos:R:3:vasp_force:R:3 uuid=e1ae61fa-fbd1-4857-a0b1-6bb20b124c31 vasp_virial="0.26977462014409975 -0.6697047651635564 -0.010289296643150156 -0.6697047651635564 -0.02816304180265142 0.004050476089377472 -0.010289296643150156 0.004050476089377472 -0.15698992896748257" vasp_energy=-108.47929386 pbc="T T T"
      46      -8.25939625      -6.22440898       2.01097771       0.05516400      -0.00333500       0.00057700 
      46      -6.18448885      -4.15311333       2.01061923      -0.00619700      -0.00658500      -0.00051400 
      46      -4.11958131      -2.08186932       2.01026236      -0.00077900      -0.00128200      -0.00027400 
      46      -2.09705259      -8.25316240       2.01001213      -0.00639600      -0.00685200      -0.00051200 
      46      -2.07658506      -4.13192502       6.02910938       0.00077500       0.00049500       0.00041300 
      46      -8.22892886      -2.10311995       6.03007334       0.00041400       0.00096100       0.00066400 
      46      -6.20640014      -8.27441303       6.02982312       0.00093600       0.00051800       0.00001600 
      46      -4.14149260      -6.20316902       6.02946625       0.00058100       0.00098100       0.00027600 
      47      -6.20567826      -8.27438187       2.01067255      -0.00699300       0.00672100      -0.00049300 
      47      -4.14077072      -6.20313786       2.01031568      -0.00138500      -0.00019500      -0.00034400 
      47      -2.07586318      -4.13189386       2.00995881      -0.00721100       0.00702200      -0.00049300 
      47      -8.22820698      -2.10308879       2.01092278      -0.00043800      -0.00037300      -0.00026200 
      47      -8.25011827      -6.22438849       6.03012667       0.00025500       0.00068300       0.00061100 
      47      -6.18521073      -4.15314449       6.02976980       0.00060100       0.00021100       0.00008200 
      47      -4.12030320      -2.08190048       6.02941293       0.00021500       0.00061800       0.00026300 
      47      -2.09777447      -8.25319356       6.02916270       0.00064100       0.00027600       0.00043100 
      47      -8.26035203      -8.28500719       4.02057805       0.00058800       0.00020900      -0.00038300 
      47      -6.19544449      -6.21376318       4.02022118      -0.00787800      -0.00035200      -0.00782500 
      47      -4.13053696      -4.14251917       4.01986431      -0.00004000       0.00037700      -0.00011100 
      47      -2.06562942      -2.07127517       4.01950744      -0.00013300      -0.00016700       0.00028200 
      47      -8.23844074      -4.16370749       0.00137416       0.00048600      -0.00008400      -0.00005400 
      47      -6.17353321      -2.09246348       0.00101729      -0.00003300       0.00010700      -0.00003000 
      47      -4.15100448      -8.26375656       0.00076706      -0.00014100       0.00010400       0.00019800 
      47      -2.08609694      -6.19251255       0.00041019      -0.00803600      -0.00008400      -0.00847000 
      47      -2.08681883      -6.19254371       4.01956076      -0.00806400      -0.00038900       0.00870500 
      47      -8.23916263      -4.16373864       4.02052472       0.00076800       0.00016300      -0.00050800 
      47      -6.17425509      -2.09249464       4.02016785      -0.00016400      -0.00018100       0.00027000 
      47      -4.15172636      -8.26378772       4.01991763      -0.00016900       0.00040900      -0.00033500 
      47      -4.13125884      -4.14255033       8.03901487      -0.00006200       0.00008500      -0.00004200 
      47     -10.28360264      -2.11374526       8.03997883       0.00066700      -0.00008100      -0.00017600 
      47      -8.26107391      -8.28503835       8.03972861      -0.00770300      -0.00012100       0.00805900 
      47      -6.19616638      -6.21379434       8.03937174      -0.00026900       0.00014200      -0.00002600 
32
Lattice="-8.217251337915155 -0.0424389414517363 0.0013208343669515 -0.0423788126316586 -8.242537087618256 0.0001066441835158 -2.066351301656502 -2.071306323197759 8.03865800066186" Properties=Z:I:1:pos:R:3:vasp_force:R:3 uuid=f342bcb4-89be-459e-b047-5aa5939c8790 vasp_virial="0.2675047224698513 -0.6693139893663429 -0.010200947332475818 -0.6693139893663429 -0.02853342929740154 0.004220378609905051 -0.010200947332475818 0.004220378609905051 -0.15805691679639575" vasp_energy=-108.47928047 pbc="T T T"
      46      -8.24939639      -6.22435734       2.01097610      -0.00852500      -0.00052600       0.00783400 
      46      -6.18448885      -4.15311333       2.01061923      -0.00073100      -0.00085400      -0.00047300 
      46      -4.11958131      -2.08186932       2.01026236      -0.00088700      -0.00038900      -0.00026600 
      46      -2.09705259      -8.25316240       2.01001213       0.00020000      -0.00106000      -0.00072100 
      46      -2.07658506      -4.13192502       6.02910938       0.00149500       0.00034300      -0.00001200 
      46      -8.22892886      -2.10311995       6.03007334       0.00040700       0.00103600       0.00046800 
      46      -6.20640014      -8.27441303       6.02982312       0.00056300       0.00056600       0.00026000 
      46      -4.14149260      -6.20316902       6.02946625      -0.00748400       0.00089800       0.00890800 
      47      -6.20567826      -8.27438187       2.01067255      -0.00064900      -0.00068200      -0.00048900 
      47      -4.14077072      -6.20313786       2.01031568      -0.00877000      -0.00027900      -0.00961600 
      47      -2.07586318      -4.13189386       2.00995881       0.00121600      -0.00087000      -0.00037700 
      47      -8.22820698      -2.10308879       2.01092278      -0.00064600      -0.00032300      -0.00024400 
      47      -8.25011827      -6.22438849       6.03012667      -0.00773900       0.00064300      -0.00854200 
      47      -6.18521073      -4.15314449       6.02976980       0.00014600       0.00024000       0.00025900 
      47      -4.12030320      -2.08190048       6.02941293       0.00014900       0.00059700       0.00050200 
      47      -2.09777447      -8.25319356       6.02916270       0.00201200       0.00008100       0.00033600 
      47      -8.26035203      -8.28500719       4.02057805      -0.00684700       0.00843000      -0.00038800 
      47      -6.19544449      -6.21376318       4.02022118      -0.00149500      -0.00026000       0.00021900 
      47      -4.13053696      -4.14251917       4.01986431      -0.00705500       0.00872200      -0.00038700 
      47      -2.06562942      -2.07127517       4.01950744       0.00016400      -0.00025100       0.00033300 
      47      -8.23844074      -4.16370749       0.00137416       0.00018600      -0.00010100       0.00020200 
      47      -6.17353321      -2.09246348       0.00101729       0.00002000      -0.00005000      -0.00016500 
      47      -4.15100448      -8.26375656       0.00076706       0.00002100      -0.00005100      -0.00016500 
      47      -2.08609694      -6.19251255       0.00041019       0.00018800      -0.00010100       0.00020500 
      47      -2.09681869      -6.19259535       4.01956236       0.05678500      -0.00162000       0.00202400 
      47      -8.23916263      -4.16373864       4.02052472      -0.00599400      -0.00689500      -0.00027100 
      47      -6.17425509      -2.09249464       4.02016785      -0.00008600      -0.00021500       0.00030500 
      47      -4.15172636      -8.26378772       4.01991763      -0.00618600      -0.00715800      -0.00026900 
      47      -4.13125884      -4.14255033       8.03901487       0.00009600      -0.00001400       0.00014300 
      47     -10.28360264      -2.11374526       8.03997883       0.00009600      -0.00001600       0.00014300 
      47      -8.26107391      -8.28503835       8.03972861      -0.00032600       0.00008000       0.00011800 
      47      -6.19616638      -6.21379434       8.03937174      -0.00032600       0.00008000       0.00012600 
32
Lattice="-8.217251337915155 -0.0424389414517363 0.0013208343669515 -0.0423788126316586 -8.242537087618256 0.0001066441835158 -2.066351301656502 -2.071306323197759 8.03865800066186" Properties=Z:I:1:pos:R:3:vasp_force:R:3 uuid=b4270a5e-d7f1-4dcf-b8be-f57d26290ab0 vasp_virial="0.2686600596094389 -0.6693003971647007 -0.010241723937402435 -0.6693003971647007 -0.027259160393444698 0.004386883080022078 -0.010241723937402435 0.004386883080022078 -0.1569321621105032" vasp_energy=-108.47928232 pbc="T T T"
      46      -8.24939639      -6.22435734       2.01097610      -0.00100200      -0.00000500      -0.00014900 
      46      -6.18448885      -4.15311333       2.01061923      -0.00032700      -0.00100300      -0.00052100 
      46      -4.11958131      -2.08186932       2.01026236      -0.00074100      -0.00059000      -0.00013400 
      46      -2.09705259      -8.25316240       2.01001213      -0.00051600      -0.00878900      -0.00871000 
      46      -2.07658506      -4.13192502       6.02910938       0.00077900      -0.00711100      -0.00764100 
      46      -8.22892886      -2.10311995       6.03007334       0.00055500       0.00083400       0.00059800 
      46      -6.20640014      -8.27441303       6.02982312       0.00096900       0.00042200       0.00021200 
      46      -4.14149260      -6.20316902       6.02946625       0.00032000       0.00142200       0.00055900 
      47      -6.20567826      -8.27438187       2.01067255      -0.00028300      -0.00077800      -0.00049000 
      47      -4.14077072      -6.20313786       2.01031568      -0.00074500       0.00124600      -0.00043400 
      47      -2.07586318      -4.13189386       2.00995881      -0.00020300      -0.00846000       0.00829300 
      47      -8.22820698      -2.10308879       2.01092278      -0.00059600      -0.00074700      -0.00020300 
      47      -8.25011827      -6.22438849       6.03012667       0.00001500       0.00216400       0.00027800 
      47      -6.18521073      -4.15314449       6.02976980       0.00051200       0.00014100       0.00025700 
      47      -4.12030320      -2.08190048       6.02941293       0.00019700       0.00017100       0.00054400 
      47      -2.09777447      -8.25319356       6.02916270       0.00058900      -0.00777500       0.00936100 
      47      -8.26035203      -8.28500719       4.02057805       0.00855500      -0.00693900      -0.00025100 
      47      -6.19544449      -6.21376318       4.02022118      -0.00008300       0.00000300       0.00030300 
      47      -4.13053696      -4.14251917       4.01986431       0.00826300      -0.00672800      -0.00024900 
      47      -2.06562942      -2.07127517       4.01950744      -0.00005900      -0.00170400       0.00035700 
      47      -8.23844074      -4.16370749       0.00137416      -0.00004600       0.00019500       0.00010200 
      47      -6.17353321      -2.09246348       0.00101729      -0.00009700      -0.00000400      -0.00017700 
      47      -4.15100448      -8.26375656       0.00076706      -0.00009700      -0.00000300      -0.00017700 
      47      -2.08609694      -6.19251255       0.00041019      -0.00004700       0.00019500       0.00010500 
      47      -2.08687024      -6.20254358       4.01956089      -0.00165700       0.05655200      -0.00082900 
      47      -8.23916263      -4.16373864       4.02052472      -0.00705200      -0.00588100      -0.00036000 
      47      -6.17425509      -2.09249464       4.02016785      -0.00004400      -0.00025700       0.00031700 
      47      -4.15172636      -8.26378772       4.01991763      -0.00731600      -0.00607400      -0.00035900 
      47      -4.13125884      -4.14255033       8.03901487      -0.00000700      -0.00032300      -0.00047600 
      47     -10.28360264      -2.11374526       8.03997883      -0.00000600      -0.00032100      -0.00046800 
      47      -8.26107391      -8.28503835       8.03972861       0.00008400       0.00007300       0.00017000 
      47      -6.19616638      -6.21379434       8.03937174       0.00008500       0.00007100       0.00017000 
32
Lattice="-8.217251337915155 -0.0424389414517363 0.0013208343669515 -0.0423788126316586 -8.242537087618256 0.0001066441835158 -2.066351301656502 -2.071306323197759 8.03865800066186" Properties=Z:I:1:pos:R:3:vasp_force:R:3 uuid=267ca6db-a463-4580-86fd-2152ec1d53b0 vasp_virial="0.26812316764457167 -0.669449911382765 -0.010669878289131931 -0.669449911382765 -0.027914984122681154 0.003917952123365961 -0.010669878289131931 0.003917952123365961 -0.15695255041296655" vasp_energy=-108.47927843 pbc="T T T"
      46      -8.24939639      -6.22435734       2.01097610      -0.01028300      -0.00032500       0.00872500 
      46      -6.18448885      -4.15311333       2.01061923      -0.00050700      -0.00096200      -0.00035700 
      46      -4.11958131      -2.08186932       2.01026236      -0.00081200      -0.00067300      -0.00018400 
      46      -2.09705259      -8.25316240       2.01001213      -0.00021800       0.00462800       0.00440400 
      46      -2.07658506      -4.13192502       6.02910938       0.00108900       0.00620700       0.00521900 
      46      -8.22892886      -2.10311995       6.03007334       0.00048600       0.00075200       0.00054500 
      46      -6.20640014      -8.27441303       6.02982312       0.00078900       0.00046200       0.00036900 
      46      -4.14149260      -6.20316902       6.02946625      -0.00944000       0.00112400       0.00982600 
      47      -6.20567826      -8.27438187       2.01067255      -0.00032700      -0.00068700      -0.00038000 
      47      -4.14077072      -6.20313786       2.01031568       0.00600800       0.00008100       0.00466300 
      47      -2.07586318      -4.13189386       2.00995881       0.00011000      -0.01086700       0.00857100 
      47      -8.22820698      -2.10308879       2.01092278      -0.00063300      -0.00042400      -0.00015900 
      47      -8.25011827      -6.22438849       6.03012667       0.00695300       0.00101800       0.00547700 
      47      -6.18521073      -4.15314449       6.02976980       0.00046800       0.00023300       0.00036500 
      47      -4.12030320      -2.08190048       6.02941293       0.00016100       0.00049500       0.00058500 
      47      -2.09777447      -8.25319356       6.02916270       0.00092800      -0.01037800       0.00965600 
      47      -8.26035203      -8.28500719       4.02057805       0.00030300       0.00063800      -0.00170100 
      47      -6.19544449      -6.21376318       4.02022118      -0.00045400      -0.00024900       0.00002700 
      47      -4.13053696      -4.14251917       4.01986431       0.00033100       0.00061000      -0.00170000 
      47      -2.06562942      -2.07127517       4.01950744      -0.00005800      -0.00059700       0.00004800 
      47      -8.23844074      -4.16370749       0.00137416      -0.00007400      -0.00018900       0.00077400 
      47      -6.17353321      -2.09246348       0.00101729       0.00013900       0.00011000       0.00011500 
      47      -4.15100448      -8.26375656       0.00076706       0.00013900       0.00011000       0.00011600 
      47      -2.08609694      -6.19251255       0.00041019      -0.00007600      -0.00019000       0.00077600 
      47      -2.08923433      -6.19496500       4.02895771       0.01210600       0.01490400      -0.05440300 
      47      -8.23916263      -4.16373864       4.02052472      -0.00317900      -0.00295000      -0.00145900 
      47      -6.17425509      -2.09249464       4.02016785      -0.00009500      -0.00028000       0.00044100 
      47      -4.15172636      -8.26378772       4.01991763      -0.00321600      -0.00298600      -0.00149200 
      47      -4.13125884      -4.14255033       8.03901487      -0.00013300       0.00034100       0.00015400 
      47     -10.28360264      -2.11374526       8.03997883      -0.00013200       0.00033800       0.00015400 
      47      -8.26107391      -8.28503835       8.03972861      -0.00018700      -0.00014700       0.00041300 
      47      -6.19616638      -6.21379434       8.03937174      -0.00019100      -0.00014600       0.00041500 
32
Lattice="-8.217251337915155 -0.0424389414517363 0.0013208343669515 -0.0423788126316586 -8.242537087618256 0.0001066441835158 -2.066351301656502 -2.071306323197759 8.03865800066186" Properties=Z:I:1:pos:R:3:vasp_force:R:3 uuid=a0da6f1b-5b2e-4c9f-8a2c-de943efd4f06 vasp_virial="0.26828287601386763 -0.66954165874385 -0.010265510290276295 -0.66954165874385 -0.027894595820217843 0.004060670240609127 -0.010265510290276295 0.004060670240609127 -0.15661274537191136" vasp_energy=-108.47929901 pbc="T T T"
      46      -8.24944780      -6.23435721       2.01097623      -0.00335700       0.05408700      -0.00010500 
      46      -6.18448885      -4.15311333       2.01061923      -0.00612100      -0.00666100      -0.00048600 
      46      -4.11958131      -2.08186932       2.01026236      -0.00164000      -0.00034000      -0.00026800 
      46      -2.09705259      -8.25316240       2.01001213      -0.00638600      -0.00686300      -0.00048500 
      46      -2.07658506      -4.13192502       6.02910938       0.00083200       0.00059400       0.00005800 
      46      -8.22892886      -2.10311995       6.03007334       0.00047300       0.00106100       0.00031700 
      46      -6.20640014      -8.27441303       6.02982312       0.00085500       0.00049100       0.00038600 
      46      -4.14149260      -6.20316902       6.02946625       0.00049700       0.00095200       0.00063700 
      47      -6.20567826      -8.27438187       2.01067255       0.00747500      -0.00766200      -0.00047300 
      47      -4.14077072      -6.20313786       2.01031568      -0.00076300      -0.00003000      -0.00027700 
      47      -2.07586318      -4.13189386       2.00995881       0.00717400      -0.00744100      -0.00047300 
      47      -8.22820698      -2.10308879       2.01092278      -0.00053300      -0.00112100      -0.00028900 
      47      -8.25011827      -6.22438849       6.03012667       0.00020700       0.00075400       0.00062800 
      47      -6.18521073      -4.15314449       6.02976980       0.00053000       0.00030200       0.00013100 
      47      -4.12030320      -2.08190048       6.02941293       0.00014500       0.00070800       0.00031100 
      47      -2.09777447      -8.25319356       6.02916270       0.00059200       0.00034700       0.00044900 
      47      -8.26035203      -8.28500719       4.02057805      -0.00000700      -0.00755500       0.00793600 
      47      -6.19544449      -6.21376318       4.02022118      -0.00025100       0.00039900       0.00009600 
      47      -4.13053696      -4.14251917       4.01986431       0.00020800       0.00021600      -0.00031900 
      47      -2.06562942      -2.07127517       4.01950744       0.00006500      -0.00050900       0.00031100 
      47      -8.23844074      -4.16370749       0.00137416      -0.00010500      -0.00757100       0.00791800 
      47      -6.17353321      -2.09246348       0.00101729       0.00016600      -0.00023700       0.00000000 
      47      -4.15100448      -8.26375656       0.00076706       0.00010700      -0.00005500      -0.00000900 
      47      -2.08609694      -6.19251255       0.00041019      -0.00012700       0.00067100      -0.00019000 
      47      -2.08681883      -6.19254371       4.01956076      -0.00018700       0.00024700       0.00025500 
      47      -8.23916263      -4.16373864       4.02052472       0.00001300      -0.00728800      -0.00819100 
      47      -6.17425509      -2.09249464       4.02016785      -0.00001300      -0.00034200       0.00049200 
      47      -4.15172636      -8.26378772       4.01991763       0.00018200       0.00024300      -0.00030600 
      47      -4.13125884      -4.14255033       8.03901487       0.00008700      -0.00007600       0.00018100 
      47     -10.28360264      -2.11374526       8.03997883      -0.00009300      -0.00781000      -0.00820600 
      47      -8.26107391      -8.28503835       8.03972861      -0.00010700       0.00051200      -0.00003500 
      47      -6.19616638      -6.21379434       8.03937174       0.00008200      -0.00002300       0.00000500 
32
Lattice="-8.217251337915155 -0.0424389414517363 0.0013208343669515 -0.0423788126316586 -8.242537087618256 0.0001066441835158 -2.066351301656502 -2.071306323197759 8.03865800066186" Properties=Z:I:1:pos:R:3:vasp_force:R:3 uuid=0c9657c5-acdc-4793-8f7e-c3327a3bb194 vasp_virial="0.26911539836445275 -0.6695756392479553 -0.010564538726404834 -0.6695756392479553 -0.027748479652564127 0.003639311989700733 -0.010564538726404834 0.003639311989700733 -0.15665012392642744" vasp_energy=-108.47927519 pbc="T T T"
      46      -8.25181189      -6.22677863       2.02037305       0.01163400       0.01194700      -0.05608300 
      46      -6.18448885      -4.15311333       2.01061923      -0.00322800      -0.00371400       0.00008800 
      46      -4.11958131      -2.08186932       2.01026236      -0.00099700      -0.00062100      -0.00080100 
      46      -2.09705259      -8.25316240       2.01001213      -0.00327400      -0.00376200       0.00007300 
      46      -2.07658506      -4.13192502       6.02910938       0.00063900       0.00067900       0.00017700 
      46      -8.22892886      -2.10311995       6.03007334       0.00028100       0.00114000       0.00042600 
      46      -6.20640014      -8.27441303       6.02982312       0.00105700       0.00035000       0.00015500 
      46      -4.14149260      -6.20316902       6.02946625       0.00069600       0.00081500       0.00040400 
      47      -6.20567826      -8.27438187       2.01067255      -0.00005900      -0.00050400      -0.00100100 
      47      -4.14077072      -6.20313786       2.01031568      -0.00075400      -0.00022000      -0.00049500 
      47      -2.07586318      -4.13189386       2.00995881      -0.00003600      -0.00052600      -0.00100100 
      47      -8.22820698      -2.10308879       2.01092278      -0.00058000      -0.00046400      -0.00045200 
      47      -8.25011827      -6.22438849       6.03012667       0.00009600       0.00055100       0.00077400 
      47      -6.18521073      -4.15314449       6.02976980       0.00072400       0.00039000       0.00022500 
      47      -4.12030320      -2.08190048       6.02941293       0.00033800       0.00079700       0.00040900 
      47      -2.09777447      -8.25319356       6.02916270       0.00048100       0.00014400       0.00060200 
      47      -8.26035203      -8.28500719       4.02057805       0.00016700      -0.00942000       0.00875000 
      47      -6.19544449      -6.21376318       4.02022118       0.00581000       0.00005000       0.00541000 
      47      -4.13053696      -4.14251917       4.01986431      -0.00002500       0.00030300      -0.00023500 
      47      -2.06562942      -2.07127517       4.01950744      -0.00002200      -0.00032200       0.00037800 
      47      -8.23844074      -4.16370749       0.00137416       0.00004900      -0.00925100       0.00869700 
      47      -6.17353321      -2.09246348       0.00101729       0.00007900      -0.00005000       0.00007000 
      47      -4.15100448      -8.26375656       0.00076706      -0.00012600       0.00003000       0.00007400 
      47      -2.08609694      -6.19251255       0.00041019       0.00575800       0.00030700       0.00501400 
      47      -2.08681883      -6.19254371       4.01956076      -0.00998100      -0.00020900       0.00959100 
      47      -8.23916263      -4.16373864       4.02052472       0.00044000       0.00602500       0.00465700 
      47      -6.17425509      -2.09249464       4.02016785      -0.00007400      -0.00037600       0.00035900 
      47      -4.15172636      -8.26378772       4.01991763       0.00004400       0.00031900      -0.00020800 
      47      -4.13125884      -4.14255033       8.03901487       0.00002700      -0.00011000       0.00004700 
      47     -10.28360264      -2.11374526       8.03997883       0.00032500       0.00561100       0.00488400 
      47      -8.26107391      -8.28503835       8.03972861      -0.00943200       0.00003800       0.00890900 
      47      -6.19616638      -6.21379434       8.03937174      -0.00005700       0.00005300       0.00010500 
32
Lattice="-8.217251337915155 -0.0424389414517363 0.0013208343669515 -0.0423788126316586 -8.242537087618256 0.0001066441835158 -2.066351301656502 -2.071306323197759 8.03865800066186" Properties=Z:I:1:pos:R:3:vasp_force:R:3 uuid=5ec62b7a-c3c1-4eee-bd49-57500295a1c3 vasp_virial="0.26796345927527576 -0.669745541768483 -0.010377645953824498 -0.669745541768483 -0.028197022306756934 0.003999505333219199 -0.010377645953824498 0.003999505333219199 -0.15751322873070753" vasp_energy=-108.47929573 pbc="T T T"
      46      -8.24939639      -6.22435734       2.01097610      -0.00780300       0.00721300      -0.00024800 
      46      -6.18448885      -4.15311333       2.01061923      -0.00029200      -0.00088300      -0.00044800 
      46      -4.11958131      -2.08186932       2.01026236      -0.00758400       0.00690400      -0.00024900 
      46      -2.09705259      -8.25316240       2.01001213      -0.00123300      -0.00110300      -0.00056400 
      46      -2.07658506      -4.13192502       6.02910938       0.00087000       0.00043200       0.00008600 
      46      -8.22892886      -2.10311995       6.03007334       0.00055100       0.00095600       0.00061900 
      46      -6.20640014      -8.27441303       6.02982312       0.00090700       0.00049100       0.00037200 
      46      -4.14149260      -6.20316902       6.02946625       0.00051000       0.00089600       0.00032900 
      47      -6.21567812      -8.27443352       2.01067416       0.05438500      -0.00094800      -0.00002500 
      47      -4.14077072      -6.20313786       2.01031568      -0.00662900      -0.00741200      -0.00029300 
      47      -2.07586318      -4.13189386       2.00995881      -0.00040800       0.00002100      -0.00046700 
      47      -8.22820698      -2.10308879       2.01092278      -0.00681400      -0.00768100      -0.00029300 
      47      -8.25011827      -6.22438849       6.03012667       0.00022600       0.00075100       0.00062300 
      47      -6.18521073      -4.15314449       6.02976980       0.00061100       0.00034400       0.00044400 
      47      -4.12030320      -2.08190048       6.02941293       0.00014400       0.00076600       0.00028800 
      47      -2.09777447      -8.25319356       6.02916270       0.00053000       0.00035900       0.00011200 
      47      -8.26035203      -8.28500719       4.02057805      -0.00799700       0.00013700       0.00903500 
      47      -6.19544449      -6.21376318       4.02022118       0.00141500      -0.00034200       0.00023100 
      47      -4.13053696      -4.14251917       4.01986431       0.00005900       0.00024400      -0.00036200 
      47      -2.06562942      -2.07127517       4.01950744      -0.00054700      -0.00035300       0.00031500 
      47      -8.23844074      -4.16370749       0.00137416      -0.00004300      -0.00002700      -0.00005300 
      47      -6.17353321      -2.09246348       0.00101729       0.00151800      -0.00003700      -0.00005000 
      47      -4.15100448      -8.26375656       0.00076706      -0.00786100      -0.00013500       0.00901400 
      47      -2.08609694      -6.19251255       0.00041019      -0.00044600      -0.00007700      -0.00000000 
      47      -2.08681883      -6.19254371       4.01956076      -0.00051900      -0.00034100       0.00028700 
      47      -8.23916263      -4.16373864       4.02052472       0.00007100       0.00025800      -0.00030300 
      47      -6.17425509      -2.09249464       4.02016785       0.00134700      -0.00029900       0.00033900 
      47      -4.15172636      -8.26378772       4.01991763      -0.00781500       0.00014200      -0.00937500 
      47      -4.13125884      -4.14255033       8.03901487      -0.00041800      -0.00007800      -0.00002900 
      47     -10.28360264      -2.11374526       8.03997883      -0.00815300      -0.00012400      -0.00939700 
      47      -8.26107391      -8.28503835       8.03972861       0.00144700      -0.00006600       0.00005600 
      47      -6.19616638      -6.21379434       8.03937174      -0.00002900      -0.00000900       0.00000700 
32
Lattice="-8.217251337915155 -0.0424389414517363 0.0013208343669515 -0.0423788126316586 -8.242537087618256 0.0001066441835158 -2.066351301656502 -2.071306323197759 8.03865800066186" Properties=Z:I:1:pos:R:3:vasp_force:R:3 uuid=a93f96c1-72e6-4d34-85bb-ed6128b09604 vasp_virial="0.2678887021662436 -0.6695654450967237 -0.010309684945613467 -0.6695654450967237 -0.027429062913972284 0.004349504525506011 -0.010309684945613467 0.004349504525506011 -0.15763895659589794" vasp_energy=-108.47929903 pbc="T T T"
      46      -8.24939639      -6.22435734       2.01097610       0.00655400      -0.00728800      -0.00026800 
      46      -6.18448885      -4.15311333       2.01061923      -0.00057800      -0.00183800      -0.00054500 
      46      -4.11958131      -2.08186932       2.01026236       0.00686500      -0.00751000      -0.00026800 
      46      -2.09705259      -8.25316240       2.01001213      -0.00041200      -0.00075600      -0.00047900 
      46      -2.07658506      -4.13192502       6.02910938       0.00078500       0.00049600       0.00007500 
      46      -8.22892886      -2.10311995       6.03007334       0.00049100       0.00100500       0.00061300 
      46      -6.20640014      -8.27441303       6.02982312       0.00085000       0.00054000       0.00036600 