30
Lattice="-0.004272641869465 -7.979201697916293 -0.0053277427554912 7.902215134643532 -1.9891409351392757 1.9745135994675596 -5.933349056445407 0.000770025073664 5.951149903864655" Properties=Z:I:1:pos:R:3:vasp_force:R:3 uuid=cad10a6b-7e55-4e3a-b673-a36c6e80fab3 vasp_virial="-0.016995540756248196 -0.03448854052223506 0.1927331777495749 -0.03448854052223506 -0.2852283650368079 -0.025349925890388793 0.1927331777495749 -0.025349925890388793 -0.28310977490121497" vasp_energy=-144.14118053 pbc="T T T"
      46       1.95798724      -3.99792642       1.99144120       0.00735200       0.07835900       0.00023400 
      46       3.93049978      -7.97510947       3.96935220       0.00489600      -0.00054100      -0.00265500 
      46      -1.99493553      -1.99394989       3.97807067       0.00598000       0.00043800      -0.00183700 
      46      -0.02242835      -5.98113294       5.95597499       0.00500900      -0.00051000      -0.00174400 
      46       7.88770054      -1.98988431       1.98805715       0.00485400      -0.00045900      -0.00260200 
      46      -0.00920235      -5.98369399       1.98287115      -0.01512200      -0.01013600       0.00237600 
      46       1.96757748      -1.99167534       3.96610321      -0.00323000      -0.00927800      -0.00713500 
      46      -3.96213047      -3.98971745       3.96949394      -0.00321500      -0.00028500       0.00265200 
      46      -1.98962328      -7.97690050       5.94739826      -0.00424900      -0.00084200       0.00236900 
      46       5.92050560      -3.98565187       1.97948042      -0.00300200       0.00037400       0.00382300 
      46      -1.98202507      -7.97891800       1.97836122      -0.00073900       0.00042200       0.00110600 
      46      -0.00524524      -3.98689935       3.96159329      -0.00045800       0.00059800      -0.00037100 
      46       1.96726194      -7.97408240       5.93949761      -0.00023500       0.00095400       0.00079900 
      46      -3.95817336      -1.99292282       5.94821608      -0.00167300      -0.00926300       0.00926600 
      46       3.94768288      -5.98087589       1.97497050       0.00992000      -0.00966600       0.00027300 
      46      -1.97818001      -5.98213809       3.95716117       0.00503800       0.00009200      -0.00338300 
      46      -0.00140018      -1.99011944       5.94039324       0.00527100      -0.00044100      -0.00342900 
      46       1.97110700      -5.97730249       7.91829756       0.00497700       0.00063700      -0.00345400 
      46       1.97474811      -7.97611462       1.97053838       0.00460200      -0.00144700      -0.00364200 
      46       3.95152794      -3.98409597       3.95377045       0.00447300      -0.00019500      -0.00343900 
      46      -3.94528288      -7.97801935       3.94858633      -0.00539000       0.00088600       0.00080500 
      46      -1.96850305      -3.98600070       5.93181840      -0.00633000       0.00104600       0.00248800 
      46       5.93735319      -7.97395378       1.95857281      -0.00589500       0.00096200       0.00162000 
      46       0.01191789      -1.99279419       1.96729128       0.00636600      -0.00980400       0.00174100 
      46       1.98442507      -5.97997724       3.94519561      -0.00614100      -0.01077800       0.01455300 
      47      -3.96036121      -5.98254264       5.94556072      -0.00067300      -0.01021200      -0.01280100 
      47       3.94976768      -1.99129402       1.97764289      -0.01220900      -0.01025100       0.00061500 
      47       5.92227486      -5.97847707       3.95554721      -0.00014500      -0.00016000       0.00099900 
      47      -0.00743309      -7.97651918       3.95893793      -0.00023000      -0.00061600      -0.00020200 
      47       1.96934674      -3.98450053       5.94217000       0.00019900       0.00011200       0.00097500 
30
Lattice="-0.004272641869465 -7.979201697916293 -0.0053277427554912 7.902215134643532 -1.9891409351392757 1.9745135994675596 -5.933349056445407 0.000770025073664 5.951149903864655" Properties=Z:I:1:pos:R:3:vasp_force:R:3 uuid=9e52c504-47b6-4042-a49c-058051ec233e vasp_virial="0.0005091639276148736 -0.03917050767271666 0.19336816954435898 -0.03917050767271666 -0.28035911920030704 -0.02572448326242732 0.19336816954435898 -0.02572448326242732 -0.3027857418511139" vasp_energy=-144.14121974 pbc="T T T"
      46       1.95799259      -3.98792643       1.99144788      -0.00068100      -0.00636300      -0.00216000 
      46       3.93049978      -7.97510947       3.96935220       0.00338800       0.00067100      -0.00333600 
      46      -1.99493553      -1.99394989       3.97807067       0.00582800       0.00092800      -0.00155700 
      46      -0.02242835      -5.98113294       5.95597499       0.00445000       0.00000700      -0.00299200 
      46       7.88770054      -1.98988431       1.98805715       0.00554200       0.00047200      -0.00200200 
      46      -0.01862710      -5.98132159       1.98051620       0.06902600      -0.02119500       0.01730500 
      46       1.96757748      -1.99167534       3.96610321      -0.00340700      -0.00008800       0.00288500 
      46      -3.96213047      -3.98971745       3.96949394      -0.00316800       0.00000000       0.00298600 
      46      -1.98962328      -7.97690050       5.94739826      -0.00383200       0.00042600       0.00244500 
      46       5.92050560      -3.98565187       1.97948042      -0.00320100       0.00038100       0.00357300 
      46      -1.98202507      -7.97891800       1.97836122      -0.00722400      -0.00862800       0.00099700 
      46      -0.00524524      -3.98689935       3.96159329      -0.00023200      -0.00055500      -0.00042700 
      46       1.96726194      -7.97408240       5.93949761      -0.00027800       0.00019400       0.00063100 
      46      -3.95817336      -1.99292282       5.94821608      -0.00113400      -0.00017100       0.00054200 
      46       3.94768288      -5.98087589       1.97497050      -0.00129800       0.00001200       0.00071300 
      46      -1.97818001      -5.98213809       3.95716117      -0.00111400       0.00016300       0.00493000 
      46      -0.00140018      -1.99011944       5.94039324       0.00560800      -0.00074700      -0.00339500 
      46       1.97110700      -5.97730249       7.91829756       0.00557500       0.00388800      -0.00730800 
      46       1.97474811      -7.97611462       1.97053838      -0.00535700       0.01131200      -0.00286500 
      46       3.95152794      -3.98409597       3.95377045       0.00466400      -0.00145000      -0.00373200 
      46      -3.94528288      -7.97801935       3.94858633      -0.00502700      -0.00044400       0.00195500 
      46      -1.96850305      -3.98600070       5.93181840      -0.00624300       0.00070700       0.00331300 
      46       5.93735319      -7.97395378       1.95857281      -0.01770700      -0.00018100      -0.00967400 
      46       0.01191789      -1.99279419       1.96729128      -0.00568800       0.00061800       0.00141000 
      46       1.98442507      -5.97997724       3.94519561      -0.01741200      -0.00063100      -0.01033800 
      47      -3.96036121      -5.98254264       5.94556072      -0.00793400      -0.00008900       0.00955200 
      47       3.94976768      -1.99129402       1.97764289      -0.00010600      -0.00010500       0.00048600 
      47       5.92227486      -5.97847707       3.95554721      -0.01438800       0.01529100       0.00129900 
      47      -0.00743309      -7.97651918       3.95893793       0.00123100       0.00572000      -0.00598000 
      47       1.96934674      -3.98450053       5.94217000       0.00011900      -0.00014200       0.00074400 
30
Lattice="-0.004272641869465 -7.979201697916293 -0.0053277427554912 7.902215134643532 -1.9891409351392757 1.9745135994675596 -5.933349056445407 0.000770025073664 5.951149903864655" Properties=Z:I:1:pos:R:3:vasp_force:R:3 uuid=2b927f5b-ed1f-496c-8f63-d2781e68d332 vasp_virial="-0.006443557290850298 -0.03587849952003428 0.19224742365771244 -0.03587849952003428 -0.275191397957963 -0.03320977824425977 0.19224742365771244 -0.03320977824425977 -0.29693913537195" vasp_energy=-144.14119953 pbc="T T T"
      46       1.95799259      -3.98792643       1.99144788      -0.00128800      -0.00638200      -0.00289200 
      46       3.93049978      -7.97510947       3.96935220       0.00444400       0.00039500      -0.00281900 
      46      -1.99493553      -1.99394989       3.97807067       0.00556400       0.00066300      -0.00167000 
      46      -0.02242835      -5.98113294       5.95597499       0.00511800      -0.00034900      -0.00153900 
      46       7.88770054      -1.98988431       1.98805715       0.00522700       0.00746700       0.00341400 
      46      -0.01626282      -5.98369307       1.98995280       0.05300100      -0.00053600      -0.05486300 
      46       1.96757748      -1.99167534       3.96610321      -0.00333700       0.00014700       0.00284300 
      46      -3.96213047      -3.98971745       3.96949394      -0.00321800      -0.00019700       0.00250400 
      46      -1.98962328      -7.97690050       5.94739826      -0.00443500       0.00039100       0.00212700 
      46       5.92050560      -3.98565187       1.97948042      -0.00343800       0.00068100       0.00362900 
      46      -1.98202507      -7.97891800       1.97836122      -0.00702100      -0.00842400       0.00075000 
      46      -0.00524524      -3.98689935       3.96159329       0.00006600       0.00730800       0.00613000 
      46       1.96726194      -7.97408240       5.93949761      -0.00013500       0.00004900       0.00183100 
      46      -3.95817336      -1.99292282       5.94821608      -0.00183300      -0.00014300       0.00044300 
      46       3.94768288      -5.98087589       1.97497050      -0.00084600      -0.00022000       0.00083700 
      46      -1.97818001      -5.98213809       3.95716117      -0.00967900       0.00018100       0.01162500 
      46      -0.00140018      -1.99011944       5.94039324       0.00579000      -0.00039500      -0.00356400 
      46       1.97110700      -5.97730249       7.91829756       0.00494100      -0.00718100       0.00268600 
      46       1.97474811      -7.97611462       1.97053838      -0.00153200       0.00725200      -0.00380100 
      46       3.95152794      -3.98409597       3.95377045       0.00492900      -0.00109500      -0.00412600 
      46      -3.94528288      -7.97801935       3.94858633      -0.00568600      -0.00041100       0.00202300 
      46      -1.96850305      -3.98600070       5.93181840      -0.00690400       0.00094400       0.00339000 
      46       5.93735319      -7.97395378       1.95857281      -0.00403200       0.00001100       0.00229900 
      46       0.01191789      -1.99279419       1.96729128      -0.00507600       0.00039500       0.00187100 
      46       1.98442507      -5.97997724       3.94519561      -0.00609800      -0.00055000       0.00148100 
      47      -3.96036121      -5.98254264       5.94556072      -0.01734200       0.00019500       0.01653000 
      47       3.94976768      -1.99129402       1.97764289      -0.00000700       0.00004000       0.00042200 
      47       5.92227486      -5.97847707       3.95554721      -0.00834800       0.00924300      -0.00031500 
      47      -0.00743309      -7.97651918       3.95893793       0.00095700      -0.00945100       0.00777900 
      47       1.96934674      -3.98450053       5.94217000       0.00021700      -0.00002800       0.00097600 
30
Lattice="-0.004272641869465 -7.979201697916293 -0.0053277427554912 7.902215134643532 -1.9891409351392757 1.9745135994675596 -5.933349056445407 0.000770025073664 5.951149903864655" Properties=Z:I:1:pos:R:3:vasp_force:R:3 uuid=16c46e6b-06b6-44ad-b084-107466863e36 vasp_virial="-0.0018727868601926387 -0.027453884878636464 0.19060580892557483 -0.027453884878636464 -0.29326086492935294 -0.02362637673311776 0.19060580892557483 -0.02362637673311776 -0.2921957174026183" vasp_energy=-144.14113295 pbc="T T T"
      46       1.95799259      -3.98792643       1.99144788       0.01118700       0.00809400      -0.00206500 
      46       3.93049978      -7.97510947       3.96935220       0.00530100       0.00031000      -0.00255200 
      46      -1.99493553      -1.99394989       3.97807067       0.00594700       0.00064400      -0.00203100 
      46      -0.02242835      -5.98113294       5.95597499       0.00482700      -0.00026900      -0.00236700 
      46       7.88770054      -1.98988431       1.98805715       0.00437200      -0.00679700      -0.00878900 
      46      -0.00214188      -5.98369490       1.97578950      -0.06167500       0.00031800       0.05961600 
      46       1.96757748      -1.99167534       3.96610321      -0.00341200       0.00021000       0.00241000 
      46      -3.96213047      -3.98971745       3.96949394      -0.00365500       0.00004600       0.00223000 
      46      -1.98962328      -7.97690050       5.94739826      -0.00414200       0.00008400       0.00258200 
      46       5.92050560      -3.98565187       1.97948042      -0.00307700       0.00051700       0.00363100 
      46      -1.98202507      -7.97891800       1.97836122       0.00590100       0.00691900       0.00169200 
      46      -0.00524524      -3.98689935       3.96159329      -0.00089700      -0.00789400      -0.00652400 
      46       1.96726194      -7.97408240       5.93949761      -0.00001400      -0.00015100       0.00029500 
      46      -3.95817336      -1.99292282       5.94821608      -0.00062600      -0.00018400      -0.00076700 
      46       3.94768288      -5.98087589       1.97497050       0.00069200      -0.00004100       0.00076100 
      46      -1.97818001      -5.98213809       3.95716117       0.01959700       0.00012800      -0.01775700 
      46      -0.00140018      -1.99011944       5.94039324       0.00470400      -0.00036200      -0.00279900 
      46       1.97110700      -5.97730249       7.91829756       0.00451700       0.00670200      -0.00971000 
      46       1.97474811      -7.97611462       1.97053838       0.01107000      -0.00710500      -0.00320900 
      46       3.95152794      -3.98409597       3.95377045       0.00402600      -0.00116300      -0.00296800 
      46      -3.94528288      -7.97801935       3.94858633      -0.00422400       0.00001800       0.00051000 
      46      -1.96850305      -3.98600070       5.93181840      -0.00545100       0.00054700       0.00193300 
      46       5.93735319      -7.97395378       1.95857281      -0.00681200      -0.00027800       0.00195000 
      46       0.01191789      -1.99279419       1.96729128      -0.00527700       0.00038900       0.00207900 
      46       1.98442507      -5.97997724       3.94519561      -0.00587700      -0.00038200       0.00405500 
      47      -3.96036121      -5.98254264       5.94556072       0.01658600       0.00015700      -0.01754500 
      47       3.94976768      -1.99129402       1.97764289       0.00028600      -0.00004800       0.00069000 
      47       5.92227486      -5.97847707       3.95554721       0.00755400      -0.00957900       0.00209300 
      47      -0.00743309      -7.97651918       3.95893793      -0.00140100       0.00915500      -0.00808800 
      47       1.96934674      -3.98450053       5.94217000      -0.00002600       0.00001400       0.00064400 
30
Lattice="-0.004272641869465 -7.979201697916293 -0.0053277427554912 7.902215134643532 -1.9891409351392757 1.9745135994675596 -5.933349056445407 0.000770025073664 5.951149903864655" Properties=Z:I:1:pos:R:3:vasp_force:R:3 uuid=51994de1-8157-444d-b629-9f2cf45c9995 vasp_virial="-0.006276762211114391 -0.0318110405580534 0.19275951381479636 -0.0318110405580534 -0.284888922418398 -0.02879409797546182 0.19275951381479636 -0.02879409797546182 -0.2951219468716693" vasp_energy=-144.14121848 pbc="T T T"
      46       1.95799259      -3.98792643       1.99144788       0.00472000       0.00186200      -0.00277800 
      46       3.93049978      -7.97510947       3.96935220       0.01507800      -0.00889000      -0.00276600 
      46      -1.99493553      -1.99394989       3.97807067       0.00573000      -0.00872300       0.00856400 
      46      -0.02242835      -5.98113294       5.95597499       0.00467900       0.00070400      -0.00208500 
      46       7.88770054      -1.98988431       1.98805715       0.00478300       0.00140600      -0.00263400 
      46      -0.00920235      -5.98369399       1.98287115      -0.01539900      -0.00993500       0.00235900 
      46       1.96757748      -1.99167534       3.96610321      -0.00325300       0.00014100       0.00289000 
      46      -3.96213047      -3.98971745       3.96949394      -0.00363900      -0.00115800       0.00217300 
      46      -1.98962328      -7.97690050       5.94739826      -0.00402200       0.00023700       0.00249700 
      46       5.92050560      -3.98565187       1.97948042      -0.00316900      -0.00919300      -0.00719900 
      46      -1.97775778      -0.00971630       1.98368229       0.00098000       0.07186900       0.00227900 
      46      -0.00524524      -3.98689935       3.96159329      -0.00046300      -0.00142500      -0.00031200 
      46       1.96726194      -7.97408240       5.93949761       0.00012800       0.00012900       0.00127300 
      46      -3.95817336      -1.99292282       5.94821608      -0.00102200       0.00002800       0.00006200 
      46       3.94768288      -5.98087589       1.97497050      -0.00012300      -0.00116900       0.00073200 
      46      -1.97818001      -5.98213809       3.95716117       0.00540000      -0.00934900      -0.01385400 
      46      -0.00140018      -1.99011944       5.94039324       0.00551600      -0.00037000      -0.00303200 
      46       1.97110700      -5.97730249       7.91829756       0.00457000      -0.00138400      -0.00367000 
      46       1.97474811      -7.97611462       1.97053838       0.00483000       0.00008400      -0.00327000 
      46       3.95152794      -3.98409597       3.95377045      -0.00654300      -0.01120400      -0.00347700 
      46      -3.94528288      -7.97801935       3.94858633      -0.00496300       0.00079500       0.00123700 
      46      -1.96850305      -3.98600070       5.93181840      -0.00648400       0.00175300       0.00249300 
      46       5.93735319      -7.97395378       1.95857281      -0.00544500      -0.00923600       0.01216200 
      46       0.01191789      -1.99279419       1.96729128       0.00541200      -0.00914100       0.00189400 
      46       1.98442507      -5.97997724       3.94519561      -0.00613300       0.00062700       0.00250200 
      47      -3.96036121      -5.98254264       5.94556072      -0.00080900       0.00012200      -0.00013300 
      47       3.94976768      -1.99129402       1.97764289       0.00017300       0.00159900       0.00059200 
      47       5.92227486      -5.97847707       3.95554721      -0.00032300      -0.00168200       0.00095300 
      47      -0.00743309      -7.97651918       3.95893793      -0.00027300       0.00156400      -0.00024200 
      47       1.96934674      -3.98450053       5.94217000       0.00006600      -0.00006000       0.00078900 
30
Lattice="-0.004272641869465 -7.979201697916293 -0.0053277427554912 7.902215134643532 -1.9891409351392757 1.9745135994675596 -5.933349056445407 0.000770025073664 5.951149903864655" Properties=Z:I:1:pos:R:3:vasp_force:R:3 uuid=d56e31e5-4869-4d70-87c4-7c13789d407f vasp_virial="-0.006004622870492647 -0.03208903235761324 0.19263953840656528 -0.03208903235761324 -0.28476309455122883 -0.02841954060342329 0.19263953840656528 -0.02841954060342329 -0.2957159714538867" vasp_energy=-144.14121039 pbc="T T T"
      46       1.95799259      -3.98792643       1.99144788       0.00507800      -0.00034700      -0.00220200 
      46       3.93049978      -7.97510947       3.96935220      -0.00569300       0.00986300      -0.00257700 
      46      -1.99493553      -1.99394989       3.97807067       0.00582100       0.00971900      -0.01186300 
      46      -0.02242835      -5.98113294       5.95597499       0.00532600      -0.00135000      -0.00176000 
      46       7.88770054      -1.98988431       1.98805715       0.00487600      -0.00059200      -0.00257200 
      46      -0.00920235      -5.98369399       1.98287115       0.00629300       0.00991000       0.00224700 
      46       1.96757748      -1.99167534       3.96610321      -0.00343800       0.00021100       0.00239500 
      46      -3.96213047      -3.98971745       3.96949394      -0.00321900       0.00097600       0.00259200 
      46      -1.98962328      -7.97690050       5.94739826      -0.00451200       0.00020200       0.00223600 
      46       5.92050560      -3.98565187       1.97948042      -0.00330500       0.01007400       0.01408900 
      46      -1.98201972      -7.96891801       1.97836790      -0.00222900      -0.07235500      -0.00043000 
      46      -0.00524524      -3.98689935       3.96159329      -0.00034500       0.00063200      -0.00016400 
      46       1.96726194      -7.97408240       5.93949761      -0.00024900      -0.00026900       0.00086600 
      46      -3.95817336      -1.99292282       5.94821608      -0.00139800      -0.00037000      -0.00034600 
      46       3.94768288      -5.98087589       1.97497050      -0.00000500       0.00088800       0.00087900 
      46      -1.97818001      -5.98213809       3.95716117       0.00526400       0.00991200       0.00743000 
      46      -0.00140018      -1.99011944       5.94039324       0.00502500      -0.00040500      -0.00329200 
      46       1.97110700      -5.97730249       7.91829756       0.00499000       0.00075100      -0.00325100 
      46       1.97474811      -7.97611462       1.97053838       0.00464300       0.00015400      -0.00376600 
      46       3.95152794      -3.98409597       3.95377045       0.01513900       0.00863200      -0.00359000 
      46      -3.94528288      -7.97801935       3.94858633      -0.00487100      -0.00120300       0.00129900 
      46      -1.96850305      -3.98600070       5.93181840      -0.00583800      -0.00030100       0.00281800 
      46       5.93735319      -7.97395378       1.95857281      -0.00535400       0.00922100      -0.00828000 
      46       0.01191789      -1.99279419       1.96729128      -0.01535100       0.00960700       0.00208300 
      46       1.98442507      -5.97997724       3.94519561      -0.00577500      -0.00158200       0.00307800 
      47      -3.96036121      -5.98254264       5.94556072      -0.00070400       0.00020200      -0.00006200 
      47       3.94976768      -1.99129402       1.97764289       0.00019800      -0.00164100       0.00059900 
      47       5.92227486      -5.97847707       3.95554721      -0.00029000       0.00111700       0.00091800 
      47      -0.00743309      -7.97651918       3.95893793      -0.00024800      -0.00167700      -0.00023500 
      47       1.96934674      -3.98450053       5.94217000       0.00017100       0.00002100       0.00086000 
30
Lattice="-0.004272641869465 -7.979201697916293 -0.0053277427554912 7.902215134643532 -1.9891409351392757 1.9745135994675596 -5.933349056445407 0.000770025073664 5.951149903864655" Properties=Z:I:1:pos:R:3:vasp_force:R:3 uuid=1c22a9f5-effc-4c02-8674-64cab6f54bc7 vasp_virial="-0.005931467133766372 -0.03218267170062287 0.19323356298878264 -0.03218267170062287 -0.2840637257081256 -0.028928704531038164 0.19323356298878264 -0.028928704531038164 -0.29414751245847537" vasp_energy=-144.14116997 pbc="T T T"
      46       1.95799259      -3.98792643       1.99144788       0.00379000       0.00132400      -0.00226600 
      46       3.93049978      -7.97510947       3.96935220       0.01561100      -0.01075200      -0.00240500 
      46      -1.99493553      -1.99394989       3.97807067       0.00536800      -0.00338400       0.00274300 
      46      -0.02242835      -5.98113294       5.95597499       0.00451400       0.00014900      -0.00213100 
      46       7.88770054      -1.98988431       1.98805715       0.01136700       0.00073500      -0.01171600 
      46      -0.00920235      -5.98369399       1.98287115       0.00174400       0.00687800       0.00253300 
      46       1.96757748      -1.99167534       3.96610321      -0.00215100       0.00008900       0.00284600 
      46      -3.96213047      -3.98971745       3.96949394      -0.00355500      -0.00024600       0.00162800 
      46      -1.98962328      -7.97690050       5.94739826      -0.00402300       0.00011200       0.00274600 
      46       5.92050560      -3.98565187       1.97948042      -0.00348300       0.00045900       0.00360800 
      46      -1.97260032      -7.98129040       1.98071617      -0.07651700       0.01432700      -0.02160000 
      46      -0.00524524      -3.98689935       3.96159329      -0.00010300      -0.00054500       0.00011900 
      46       1.96726194      -7.97408240       5.93949761       0.00032000      -0.00021300       0.00043900 
      46      -3.95817336      -1.99292282       5.94821608      -0.00082000      -0.00033300      -0.00078800 
      46       3.94768288      -5.98087589       1.97497050       0.00025400      -0.00028000       0.00117000 
      46      -1.97818001      -5.98213809       3.95716117       0.00509900      -0.00001000      -0.00347300 
      46      -0.00140018      -1.99011944       5.94039324       0.00550200      -0.00050400      -0.00279400 
      46       1.97110700      -5.97730249       7.91829756       0.00462700      -0.00047900      -0.00420200 
      46       1.97474811      -7.97611462       1.97053838       0.00593400       0.00005200      -0.00330500 
      46       3.95152794      -3.98409597       3.95377045       0.01089300       0.00571600      -0.00329800 
      46      -3.94528288      -7.97801935       3.94858633       0.00148800       0.00011500      -0.00760600 
      46      -1.96850305      -3.98600070       5.93181840      -0.00663600       0.00120100       0.00248100 
      46       5.93735319      -7.97395378       1.95857281      -0.00578700      -0.00413300       0.00667000 
      46       0.01191789      -1.99279419       1.96729128       0.00597100      -0.01118300       0.00224300 
      46       1.98442507      -5.97997724       3.94519561      -0.00706600       0.00008600       0.00299400 
      47      -3.96036121      -5.98254264       5.94556072      -0.00060100       0.00017800      -0.00029300 
      47       3.94976768      -1.99129402       1.97764289       0.01412600       0.00058600       0.01609600 
      47       5.92227486      -5.97847707       3.95554721      -0.00036500      -0.00052700       0.00099300 
      47      -0.00743309      -7.97651918       3.95893793       0.01423400       0.00059000       0.01594200 
      47       1.96934674      -3.98450053       5.94217000       0.00026600      -0.00000800       0.00062500 
30
Lattice="-0.004272641869465 -7.979201697916293 -0.0053277427554912 7.902215134643532 -1.9891409351392757 1.9745135994675596 -5.933349056445407 0.000770025073664 5.951149903864655" Properties=Z:I:1:pos:R:3:vasp_force:R:3 uuid=97fd6d0b-0509-4652-86e0-1b90f3c1a973 vasp_virial="-0.005407672058806244 -0.03227923727310156 0.19340035806851852 -0.03227923727310156 -0.2844733978337927 -0.028513179946432925 0.19340035806851852 -0.028513179946432925 -0.2946771599923736" vasp_energy=-144.14117682 pbc="T T T"
      46       1.95799259      -3.98792643       1.99144788       0.00601400       0.00022900      -0.00268400 
      46       3.93049978      -7.97510947       3.96935220      -0.00624900       0.01194100      -0.00291600 
      46      -1.99493553      -1.99394989       3.97807067       0.00616600       0.00465500      -0.00636400 
      46      -0.02242835      -5.98113294       5.95597499       0.00548100      -0.00076300      -0.00173800 
      46       7.88770054      -1.98988431       1.98805715      -0.00157300       0.00012400       0.00628300 
      46      -0.00920235      -5.98369399       1.98287115      -0.01114800      -0.00698200       0.00207700 
      46       1.96757748      -1.99167534       3.96610321      -0.00454000       0.00027900       0.00244000 
      46      -3.96213047      -3.98971745       3.96949394      -0.00327300       0.00010700       0.00313500 
      46      -1.98962328      -7.97690050       5.94739826      -0.00449600       0.00037200       0.00200900 
      46       5.92050560      -3.98565187       1.97948042      -0.00300000       0.00076800       0.00371600 
      46       5.91076531      -9.96568655       3.95051987       0.07518500      -0.01584500       0.02314400 
      46      -0.00524524      -3.98689935       3.96159329      -0.00072000      -0.00022200      -0.00059200 
      46       1.96726194      -7.97408240       5.93949761      -0.00044800       0.00012700       0.00172700 
      46      -3.95817336      -1.99292282       5.94821608      -0.00158800       0.00000700       0.00049900 
      46       3.94768288      -5.98087589       1.97497050      -0.00036300       0.00004300       0.00045900 
      46      -1.97818001      -5.98213809       3.95716117       0.00558100       0.00029800      -0.00336400 
      46      -0.00140018      -1.99011944       5.94039324       0.00502900      -0.00024400      -0.00353000 
      46       1.97110700      -5.97730249       7.91829756       0.00490900      -0.00012500      -0.00269400 
      46       1.97474811      -7.97611462       1.97053838       0.00354500       0.00024200      -0.00371100 
      46       3.95152794      -3.98409597       3.95377045      -0.00199400      -0.00813800      -0.00375200 
      46      -3.94528288      -7.97801935       3.94858633      -0.01145100      -0.00049700       0.01039100 