30
Lattice="2.0314625514176443 -2.0314775274681267 4.068105742937985 -8.129038707062632 8.129191080687876 8.1394173409793 -6.089623256952889 -4.058267776968066 -2.0340708382107215" Properties=Z:I:1:pos:R:3:vasp_force:R:3 uuid=617c97bb-546c-456e-babd-573c0146214a vasp_virial="-0.08342992313641931 0.11374294183116111 -0.020642260864889465 0.11374294183116111 0.1846932515497203 -0.07401365893366836 -0.020642260864889465 -0.07401365893366836 -0.0865246913178373" vasp_energy=-107.80389138 pbc="T T T"
      46      -6.10671136      -2.01161326       0.02817443      -0.02468700       0.02402100      -0.04567500 
      46      -2.04977102      -2.00940914       4.08811894      -0.00081800       0.00038500       0.00330800 
      46      -0.02021423       0.02019348       4.08812613       0.00658200      -0.00774500       0.01715100 
      46      -4.08028070      -2.00847168       2.05406248       0.00734800      -0.00730100       0.01719600 
      46      -2.05072390       0.02113094       2.05406966      -0.00110300       0.00007200       0.00337100 
      46      -4.04488403       4.04493268       4.05018540       0.00097300      -0.00072800      -0.00108200 
      46      -6.07348794      -0.01521001       6.08422750       0.00212100      -0.00036400      -0.00168100 
      46      -4.04393115       2.01439261       6.08423468       0.00098100      -0.00074600      -0.00137300 
      46      -8.10399761      -0.01427255       4.05017103       0.00123300      -0.00028700      -0.00142100 
      46      -6.07444082       2.01533007       4.05017822       0.00159800      -0.00125900      -0.00163200 
      47     -10.11385904       1.99556134       4.02861353      -0.00459500       0.00305000       0.00484600 
      47      -6.05283969       1.99368643       8.09672646      -0.00405500       0.00270900       0.00577000 
      47      -4.02328290       4.02328904       8.09673364      -0.00418900       0.00363600       0.00516200 
      47      -8.08334936       1.99462388       6.06266999      -0.00431500       0.00321000       0.00536300 
      47      -6.05379257       4.02422650       6.06267718      -0.00504200       0.00255500       0.00471900 
      47     -12.18665456       2.03891078       6.10481712       0.00099000       0.00043400       0.00039300 
      47     -10.15709776       4.06851340       6.10482431      -0.00071100      -0.00043500      -0.00037000 
      47      -6.09607842       4.06663849      10.17293724       0.00019200       0.00059100      -0.00013400 
      47     -10.15614488       2.03797333       8.13887359       0.00009600       0.00019100       0.00002700 
      47      -8.12658809       4.06757595       8.13888077      -0.00055300      -0.00036100      -0.00017600 
      47      -0.04077768      -1.98867767       2.07569385       0.00409200      -0.00330700      -0.00560400 
      47      -4.10084414      -4.01734283       0.04163020       0.01242600      -0.01100100      -0.00492900 
      47      -2.07128735      -1.98774022       0.04163738       0.00547400      -0.00306500      -0.00472000 
      47      -4.09989126      -6.04788291       2.07567948       0.00419200       0.00140300      -0.00185900 
      47      -2.07033447      -4.01828029       2.07568666      -0.00106700      -0.00299800      -0.00256700 
      47      -2.03252865       2.03256648       4.06917713      -0.00361200       0.00071300       0.00361400 
      47      -6.09259511       0.00390132       2.03511348      -0.00101000       0.00409600       0.00286300 
      47      -2.03157577       0.00202641       6.10322641       0.00031500       0.00057200      -0.00019800 
      47      -6.09164224      -2.02663875       4.06916276       0.00772500      -0.00751200      -0.00009500 
      47      -4.06208544       0.00296386       4.06916994      -0.00058200      -0.00052900      -0.00026500 
30
Lattice="2.0314625514176443 -2.0314775274681267 4.068105742937985 -8.129038707062632 8.129191080687876 8.1394173409793 -6.089623256952889 -4.058267776968066 -2.0340708382107215" Properties=Z:I:1:pos:R:3:vasp_force:R:3 uuid=a98bd910-9dc1-491c-aa06-01409bcc6234 vasp_virial="-0.08371269383319863 0.1140131449414169 -0.02100986277070257 0.1140131449414169 0.18277983650151367 -0.07247727148116746 -0.02100986277070257 -0.07247727148116746 -0.08854807274812479" vasp_energy=-107.80381386 pbc="T T T"
      46      -6.11079037      -2.00753422       0.02000601      -0.00007200       0.00070600       0.00160900 
      46      -2.04977102      -2.00940914       4.08811894      -0.00145200       0.00069300       0.00196900 
      46      -0.02021423       0.02019348       4.08812613      -0.00135400       0.00043800       0.00080500 
      46      -4.08028070      -2.00847168       2.05406248      -0.00111400       0.00101900       0.00119100 
      46      -2.05072390       0.02113094       2.05406966      -0.00137700       0.00021700       0.00177900 
      46      -4.03911302       4.03916156       4.04440703      -0.04316900       0.04369000       0.04298700 
      46      -6.07348794      -0.01521001       6.08422750       0.00164600       0.00010800      -0.00173200 
      46      -4.04393115       2.01439261       6.08423468       0.00166300      -0.00115800      -0.00161600 
      46      -8.10399761      -0.01427255       4.05017103       0.00177900      -0.00111900      -0.00139800 
      46      -6.07444082       2.01533007       4.05017822       0.00097200      -0.00105300      -0.00158000 
      47     -10.11385904       1.99556134       4.02861353      -0.00523400      -0.00777200      -0.00601400 
      47      -6.05283969       1.99368643       8.09672646      -0.00370200       0.00267700       0.00562900 
      47      -4.02328290       4.02328904       8.09673364       0.00653600      -0.00724000       0.00563500 
      47      -8.08334936       1.99462388       6.06266999      -0.00429700       0.00294100       0.00532500 
      47      -6.05379257       4.02422650       6.06267718       0.00573700       0.00311900      -0.00613500 
      47     -12.18665456       2.03891078       6.10481712       0.00098200       0.00032500      -0.00005700 
      47     -10.15709776       4.06851340       6.10482431      -0.00071200      -0.00024000      -0.00020800 
      47      -6.09607842       4.06663849      10.17293724       0.00051100       0.00040200      -0.00024500 
      47     -10.15614488       2.03797333       8.13887359       0.00023300      -0.00025000      -0.00009800 
      47      -8.12658809       4.06757595       8.13888077      -0.00068500      -0.00033000       0.00005800 
      47      -0.04077768      -1.98867767       2.07569385       0.00413700      -0.00296200      -0.00540400 
      47      -4.10084414      -4.01734283       0.04163020       0.00427100      -0.00307500      -0.00479200 
      47      -2.07128735      -1.98774022       0.04163738       0.00526600      -0.00305400      -0.00459200 
      47      -4.09989126      -6.04788291       2.07567948       0.00439500      -0.00311900      -0.00509900 
      47      -2.07033447      -4.01828029       2.07568666       0.00349200      -0.00340500      -0.00583300 
      47      -2.03252865       2.03256648       4.06917713       0.01190600      -0.01069400       0.00075500 
      47      -6.09259511       0.00390132       2.03511348      -0.00049000      -0.00042300      -0.00047000 
      47      -2.03157577       0.00202641       6.10322641      -0.00043500      -0.01053700      -0.01122100 
      47      -6.09164224      -2.02663875       4.06916276       0.01110300       0.00065800      -0.01104900 
      47      -4.06208544       0.00296386       4.06916994      -0.00053700      -0.00056200      -0.00020000 
30
Lattice="2.0314625514176443 -2.0314775274681267 4.068105742937985 -8.129038707062632 8.129191080687876 8.1394173409793 -6.089623256952889 -4.058267776968066 -2.0340708382107215" Properties=Z:I:1:pos:R:3:vasp_force:R:3 uuid=d5585363-a203-45a4-b670-8c332611c19e vasp_virial="-0.0822956984526712 0.11478919340924457 -0.0205699972423792 0.11478919340924457 0.185151968457829 -0.07250869044747628 -0.0205699972423792 -0.07250869044747628 -0.0864398601088035" vasp_energy=-107.80388485 pbc="T T T"
      46      -6.11079037      -2.00753422       0.02000601      -0.00045800       0.00093100       0.00205000 
      46      -2.04977102      -2.00940914       4.08811894      -0.00126000       0.00074500       0.00170000 
      46      -0.02021423       0.02019348       4.08812613      -0.00157700       0.00060800       0.00106100 
      46      -4.08028070      -2.00847168       2.05406248      -0.00102000       0.00100100       0.00130700 
      46      -2.05072390       0.02113094       2.05406966      -0.00145900       0.00052000       0.00185500 
      46      -4.05290152       4.03958964       4.04750738       0.04722900       0.03063900       0.01430000 
      46      -6.07348794      -0.01521001       6.08422750      -0.00768500      -0.00985600      -0.00232800 
      46      -4.04393115       2.01439261       6.08423468      -0.00648300      -0.00267600      -0.00693000 
      46      -8.10399761      -0.01427255       4.05017103      -0.00605800      -0.00253900      -0.00624900 
      46      -6.07444082       2.01533007       4.05017822      -0.00878000      -0.01133800      -0.00198900 
      47     -10.11385904       1.99556134       4.02861353      -0.00396200      -0.00448800      -0.00298500 
      47      -6.05283969       1.99368643       8.09672646      -0.00465500       0.00277400       0.00586700 
      47      -4.02328290       4.02328904       8.09673364      -0.00581100       0.00719600       0.00520500 
      47      -8.08334936       1.99462388       6.06266999      -0.00421300       0.00278800       0.00535100 
      47      -6.05379257       4.02422650       6.06267718      -0.00963600       0.00298800       0.01048600 
      47     -12.18665456       2.03891078       6.10481712       0.00087200       0.00030000       0.00037400 
      47     -10.15709776       4.06851340       6.10482431      -0.00070100      -0.00033300      -0.00043700 
      47      -6.09607842       4.06663849      10.17293724       0.00019500       0.00064400       0.00002100 
      47     -10.15614488       2.03797333       8.13887359       0.00018400       0.00014400      -0.00003900 
      47      -8.12658809       4.06757595       8.13888077      -0.00039000      -0.00035300      -0.00004800 
      47      -0.04077768      -1.98867767       2.07569385       0.00414200      -0.00307400      -0.00540500 
      47      -4.10084414      -4.01734283       0.04163020       0.00441000      -0.00307300      -0.00487100 
      47      -2.07128735      -1.98774022       0.04163738       0.00520400      -0.00314700      -0.00460700 
      47      -4.09989126      -6.04788291       2.07567948       0.00455100      -0.00316600      -0.00518900 
      47      -2.07033447      -4.01828029       2.07568666       0.00353500      -0.00334500      -0.00586900 
      47      -2.03252865       2.03256648       4.06917713      -0.00077300       0.00377100       0.00036100 
      47      -6.09259511       0.00390132       2.03511348      -0.00120900      -0.00041300      -0.00031300 
      47      -2.03157577       0.00202641       6.10322641       0.00078300      -0.00710600      -0.00798500 
      47      -6.09164224      -2.02663875       4.06916276      -0.00446300       0.00058700       0.00553800 
      47      -4.06208544       0.00296386       4.06916994      -0.00051100      -0.00072900      -0.00023100 
30
Lattice="2.0314625514176443 -2.0314775274681267 4.068105742937985 -8.129038707062632 8.129191080687876 8.1394173409793 -6.089623256952889 -4.058267776968066 -2.0340708382107215" Properties=Z:I:1:pos:R:3:vasp_force:R:3 uuid=a829d551-1169-401e-82b8-4bda1d159926 vasp_virial="-0.08219829965711391 0.1146478080608549 -0.020535436379439508 0.1146478080608549 0.18354960117607955 -0.0726909204520674 -0.020535436379439508 -0.0726909204520674 -0.08718763150695323" vasp_energy=-107.80388998 pbc="T T T"
      46      -6.11079037      -2.00753422       0.02000601      -0.00043200       0.00081300       0.00170900 
      46      -2.04977102      -2.00940914       4.08811894      -0.00132200       0.00071400       0.00208600 
      46      -0.02021423       0.02019348       4.08812613      -0.00155600       0.00066700       0.00101500 
      46      -4.08028070      -2.00847168       2.05406248      -0.00124000       0.00071900       0.00097700 
      46      -2.05072390       0.02113094       2.05406966      -0.00155700       0.00061400       0.00213800 
      46     -10.12648980      -0.00799205       2.01879259      -0.04565800      -0.03166800      -0.01668800 
      46      -6.07348794      -0.01521001       6.08422750       0.01219200       0.00959400      -0.00119400 
      46      -4.04393115       2.01439261       6.08423468       0.00837700       0.00133000       0.00385100 
      46      -8.10399761      -0.01427255       4.05017103       0.00890100       0.00154400       0.00407900 
      46      -6.07444082       2.01533007       4.05017822       0.01124600       0.00811000      -0.00130200 
      47     -10.11385904       1.99556134       4.02861353      -0.00533000       0.01075400       0.01280000 
      47      -6.05283969       1.99368643       8.09672646      -0.00339800       0.00261800       0.00554500 
      47      -4.02328290       4.02328904       8.09673364      -0.00268500       0.00004300       0.00519000 
      47      -8.08334936       1.99462388       6.06266999      -0.00443700       0.00369400       0.00547400 
      47      -6.05379257       4.02422650       6.06267718      -0.00050800       0.00202800      -0.00103000 
      47     -12.18665456       2.03891078       6.10481712       0.00095900       0.00044600       0.00034600 
      47     -10.15709776       4.06851340       6.10482431      -0.00064300      -0.00047600      -0.00036800 
      47      -6.09607842       4.06663849      10.17293724       0.00005300       0.00040700      -0.00016600 
      47     -10.15614488       2.03797333       8.13887359       0.00006300       0.00011500       0.00016900 
      47      -8.12658809       4.06757595       8.13888077      -0.00062400      -0.00034100      -0.00019100 
      47      -0.04077768      -1.98867767       2.07569385       0.00414900      -0.00315800      -0.00550700 
      47      -4.10084414      -4.01734283       0.04163020       0.00444600      -0.00304300      -0.00480500 
      47      -2.07128735      -1.98774022       0.04163738       0.00520300      -0.00305600      -0.00461400 
      47      -4.09989126      -6.04788291       2.07567948       0.00440800      -0.00325300      -0.00515500 
      47      -2.07033447      -4.01828029       2.07568666       0.00355500      -0.00331600      -0.00582900 
      47      -2.03252865       2.03256648       4.06917713       0.00250500      -0.00304500       0.00025300 
      47      -6.09259511       0.00390132       2.03511348      -0.00021400      -0.00042600      -0.00059900 
      47      -2.03157577       0.00202641       6.10322641      -0.00054600       0.00795300       0.00752300 
      47      -6.09164224      -2.02663875       4.06916276       0.00466900      -0.00038500      -0.00560600 
      47      -4.06208544       0.00296386       4.06916994      -0.00057700       0.00000400      -0.00010400 
30
Lattice="2.0314625514176443 -2.0314775274681267 4.068105742937985 -8.129038707062632 8.129191080687876 8.1394173409793 -6.089623256952889 -4.058267776968066 -2.0340708382107215" Properties=Z:I:1:pos:R:3:vasp_force:R:3 uuid=a1586d98-e1ea-43ef-945d-ef4ccaf0edf3 vasp_virial="-0.08018434391671905 0.10853681911379096 -0.018131885456815388 0.10853681911379096 0.187266464890412 -0.07609987829657348 -0.018131885456815388 -0.07609987829657348 -0.09043949451991526" vasp_energy=-107.80388054 pbc="T T T"
      46      -6.11079037      -2.00753422       0.02000601      -0.00045900       0.00086900       0.00190500 
      46      -2.04977102      -2.00940914       4.08811894      -0.00128600       0.00073400       0.00188000 
      46      -0.02021423       0.02019348       4.08812613      -0.00161700       0.00066500       0.00102000 
      46      -4.08028070      -2.00847168       2.05406248      -0.00113900       0.00091200       0.00113400 
      46      -2.05072390       0.02113094       2.05406966      -0.00152400       0.00052900       0.00200400 
      46      -4.04488403       4.04493268       4.05018540       0.00066600       0.00394200       0.00218800 
      46      -6.07348794      -0.01521001       6.08422750      -0.00260600      -0.00000700       0.00152700 
      46      -4.04393115       2.01439261       6.08423468       0.00094400      -0.00080900      -0.00148400 
      46      -8.10399761      -0.01427255       4.05017103       0.00942100      -0.00859600      -0.00150900 
      46      -6.07444082       2.01533007       4.05017822       0.00160500      -0.00128500      -0.00171200 
      47     -10.10978003       1.99148230       4.03678195      -0.02906900       0.02755500      -0.04437700 
      47      -6.05283969       1.99368643       8.09672646      -0.00441600       0.00318700       0.00460000 
      47      -4.02328290       4.02328904       8.09673364       0.00585500      -0.00665400       0.02583100 
      47      -8.08334936       1.99462388       6.06266999       0.00595900      -0.00685200       0.02605200 
      47      -6.05379257       4.02422650       6.06267718      -0.00558100       0.00287800       0.00359000 
      47     -12.18665456       2.03891078       6.10481712      -0.00176900       0.00078100       0.00244200 
      47     -10.15709776       4.06851340       6.10482431      -0.00107700       0.00228100       0.00169700 
      47      -6.09607842       4.06663849      10.17293724       0.00023300       0.00060200       0.00011300 
      47     -10.15614488       2.03797333       8.13887359       0.00500600      -0.00477100      -0.00049300 
      47      -8.12658809       4.06757595       8.13888077      -0.00061100      -0.00044300       0.00000700 
      47      -0.04077768      -1.98867767       2.07569385       0.00409500      -0.00306000      -0.00545500 
      47      -4.10084414      -4.01734283       0.04163020       0.00427800      -0.00292500      -0.00467600 
      47      -2.07128735      -1.98774022       0.04163738       0.00513200      -0.00305100      -0.00462700 
      47      -4.09989126      -6.04788291       2.07567948       0.00455100      -0.00332400      -0.00530400 
      47      -2.07033447      -4.01828029       2.07568666       0.00367200      -0.00342100      -0.00596700 
      47      -2.03252865       2.03256648       4.06917713       0.00088700       0.00034600       0.00026700 
      47      -6.09259511       0.00390132       2.03511348      -0.00069800      -0.00041700      -0.00049900 
      47      -2.03157577       0.00202641       6.10322641       0.00006300       0.00072000      -0.00004900 
      47      -6.09164224      -2.02663875       4.06916276       0.00023600      -0.00004800      -0.00002100 
      47      -4.06208544       0.00296386       4.06916994      -0.00075000      -0.00033700      -0.00008500 
30
Lattice="2.0314625514176443 -2.0314775274681267 4.068105742937985 -8.129038707062632 8.129191080687876 8.1394173409793 -6.089623256952889 -4.058267776968066 -2.0340708382107215" Properties=Z:I:1:pos:R:3:vasp_force:R:3 uuid=07ec122f-f7d3-4070-af43-e24d4c9a555f vasp_virial="-0.08370012624667511 0.11928524748803554 -0.023601927491179557 0.11928524748803554 0.18394548015157058 -0.07024024107998005 -0.023601927491179557 -0.07024024107998005 -0.08237738776507411" vasp_energy=-107.80386451 pbc="T T T"
      46      -6.11079037      -2.00753422       0.02000601      -0.00046000       0.00089100       0.00183100 
      46      -2.04977102      -2.00940914       4.08811894      -0.00133200       0.00073800       0.00189100 
      46      -0.02021423       0.02019348       4.08812613      -0.00154400       0.00062900       0.00103900 
      46      -4.08028070      -2.00847168       2.05406248      -0.00115400       0.00082600       0.00113000 
      46      -2.05072390       0.02113094       2.05406966      -0.00152200       0.00061700       0.00197700 
      46      -4.04488403       4.04493268       4.05018540       0.00138300      -0.00527300      -0.00444500 
      46      -6.07348794      -0.01521001       6.08422750       0.00668100      -0.00074700      -0.00504800 
      46      -4.04393115       2.01439261       6.08423468       0.00116400      -0.00056400      -0.00129900 
      46      -8.10399761      -0.01427255       4.05017103      -0.00665100       0.00745400      -0.00104100 
      46      -6.07444082       2.01533007       4.05017822       0.00128400      -0.00143600      -0.00162300 
      47     -10.11793805       1.99964038       4.02044511       0.02011400      -0.02153600       0.05439400 
      47      -6.05283969       1.99368643       8.09672646      -0.00370200       0.00217800       0.00678400 
      47      -4.02328290       4.02328904       8.09673364      -0.01491300       0.01339400      -0.01546200 
      47      -8.08334936       1.99462388       6.06266999      -0.01413700       0.01385400      -0.01524800 
      47      -6.05379257       4.02422650       6.06267718      -0.00452300       0.00215800       0.00574600 
      47     -12.18665456       2.03891078       6.10481712       0.00353800      -0.00001100      -0.00174000 
      47     -10.15709776       4.06851340       6.10482431      -0.00031000      -0.00304000      -0.00252600 
      47      -6.09607842       4.06663849      10.17293724      -0.00001400       0.00046100      -0.00027600 
      47     -10.15614488       2.03797333       8.13887359      -0.00492300       0.00517700       0.00065400 
      47      -8.12658809       4.06757595       8.13888077      -0.00042800      -0.00024000      -0.00026700 
      47      -0.04077768      -1.98867767       2.07569385       0.00416700      -0.00316100      -0.00548000 
      47      -4.10084414      -4.01734283       0.04163020       0.00454900      -0.00317600      -0.00502200 
      47      -2.07128735      -1.98774022       0.04163738       0.00525000      -0.00313700      -0.00461500 
      47      -4.09989126      -6.04788291       2.07567948       0.00438300      -0.00308400      -0.00506000 
      47      -2.07033447      -4.01828029       2.07568666       0.00339200      -0.00322900      -0.00575100 
      47      -2.03252865       2.03256648       4.06917713       0.00084300       0.00040700       0.00033400 
      47      -6.09259511       0.00390132       2.03511348      -0.00075700      -0.00040000      -0.00042900 
      47      -2.03157577       0.00202641       6.10322641       0.00008600       0.00033000      -0.00021700 
      47      -6.09164224      -2.02663875       4.06916276      -0.00009400       0.00029100       0.00003400 
      47      -4.06208544       0.00296386       4.06916994      -0.00036900      -0.00037200      -0.00026500 
30
Lattice="2.0314625514176443 -2.0314775274681267 4.068105742937985 -8.129038707062632 8.129191080687876 8.1394173409793 -6.089623256952889 -4.058267776968066 -2.0340708382107215" Properties=Z:I:1:pos:R:3:vasp_force:R:3 uuid=9deb9f74-751c-4107-8320-e37b0b0f2d1b vasp_virial="-0.09743964021351857 0.11838038125834176 -0.01697252560002023 0.11838038125834176 0.1683333957927219 -0.07580454001327065 -0.01697252560002023 -0.07580454001327065 -0.10292224983440627" vasp_energy=-107.80395962 pbc="T T T"
      46      -6.11079037      -2.00753422       0.02000601      -0.00034800       0.00079400       0.00182700 
      46      -2.04977102      -2.00940914       4.08811894      -0.00128400       0.00070400       0.00195500 
      46      -0.02021423       0.02019348       4.08812613      -0.00155100       0.00055400       0.00093800 
      46      -4.08028070      -2.00847168       2.05406248      -0.00107300       0.00083900       0.00105200 
      46      -2.05072390       0.02113094       2.05406966      -0.00148300       0.00053500       0.00206900 
      46      -4.04488403       4.04493268       4.05018540       0.00162800       0.01016300       0.00969300 
      46      -6.07348794      -0.01521001       6.08422750      -0.00878300      -0.00099700       0.00906400 
      46      -4.04393115       2.01439261       6.08423468       0.00116800      -0.00017800      -0.00136000 
      46      -8.10399761      -0.01427255       4.05017103      -0.00940700       0.01025200      -0.00143900 
      46      -6.07444082       2.01533007       4.05017822       0.00090900      -0.00147400      -0.00166300 
      47     -10.11963005       2.00133246       4.03439191       0.02773500      -0.02924800      -0.02836600 
      47      -6.05283969       1.99368643       8.09672646      -0.00327200       0.00168200       0.00470300 
      47      -4.02328290       4.02328904       8.09673364      -0.00241500       0.00201200       0.00368000 
      47      -8.08334936       1.99462388       6.06266999      -0.00272500       0.00139900       0.00389200 
      47      -6.05379257       4.02422650       6.06267718      -0.00403800       0.00176500       0.00365800 
      47     -12.18665456       2.03891078       6.10481712      -0.00677900      -0.00002600       0.00790900 
      47     -10.15709776       4.06851340       6.10482431      -0.00028600       0.00731900       0.00713600 
      47      -6.09607842       4.06663849      10.17293724      -0.00025100       0.00042500       0.00005900 
      47     -10.15614488       2.03797333       8.13887359      -0.00739300       0.00767000      -0.00011100 
      47      -8.12658809       4.06757595       8.13888077      -0.00044300      -0.00001600       0.00003900 
      47      -0.04077768      -1.98867767       2.07569385       0.00426600      -0.00313900      -0.00544400 
      47      -4.10084414      -4.01734283       0.04163020       0.00430300      -0.00296300      -0.00440900 
      47      -2.07128735      -1.98774022       0.04163738       0.00522400      -0.00323500      -0.00460500 
      47      -4.09989126      -6.04788291       2.07567948       0.00406600      -0.00290900      -0.00503100 
      47      -2.07033447      -4.01828029       2.07568666       0.00325500      -0.00293600      -0.00573500 
      47      -2.03252865       2.03256648       4.06917713       0.00086100       0.00057500       0.00040200 
      47      -6.09259511       0.00390132       2.03511348      -0.00091400      -0.00041900      -0.00035400 
      47      -2.03157577       0.00202641       6.10322641       0.00017700       0.00079400       0.00013600 
      47      -6.09164224      -2.02663875       4.06916276      -0.00033200       0.00050200       0.00020900 
      47      -4.06208544       0.00296386       4.06916994      -0.00081400      -0.00044400       0.00009400 
30
Lattice="2.0314625514176443 -2.0314775274681267 4.068105742937985 -8.129038707062632 8.129191080687876 8.1394173409793 -6.089623256952889 -4.058267776968066 -2.0340708382107215" Properties=Z:I:1:pos:R:3:vasp_force:R:3 uuid=0d2b701d-d28e-4ab8-a6cb-b7a3b1f55493 vasp_virial="-0.06765446015276483 0.10836715669572337 -0.027416190001069332 0.10836715669572337 0.2018228719812846 -0.06793723084954414 -0.027416190001069332 -0.06793723084954414 -0.07049159281045055" vasp_energy=-107.80382583 pbc="T T T"
      46      -6.11079037      -2.00753422       0.02000601      -0.00052500       0.00093000       0.00195000 
      46      -2.04977102      -2.00940914       4.08811894      -0.00128700       0.00073400       0.00185700 
      46      -0.02021423       0.02019348       4.08812613      -0.00156600       0.00070300       0.00116200 
      46      -4.08028070      -2.00847168       2.05406248      -0.00117600       0.00086200       0.00125300 
      46      -2.05072390       0.02113094       2.05406966      -0.00151700       0.00057300       0.00195400 
      46      -4.04488403       4.04493268       4.05018540       0.00038200      -0.01190900      -0.01234400 
      46      -6.07348794      -0.01521001       6.08422750       0.01328300       0.00029400      -0.01297800 
      46      -4.04393115       2.01439261       6.08423468       0.00097600      -0.00122200      -0.00136700 
      46      -8.10399761      -0.01427255       4.05017103       0.01244600      -0.01165100      -0.00094900 
      46      -6.07444082       2.01533007       4.05017822       0.00201500      -0.00127600      -0.00161600 
      47     -10.10808803       1.98979022       4.02283515      -0.03801900       0.03633100       0.03729500 
      47      -6.05283969       1.99368643       8.09672646      -0.00480500       0.00364800       0.00673000 
      47      -4.02328290       4.02328904       8.09673364      -0.00606100       0.00523500       0.00673300 
      47      -8.08334936       1.99462388       6.06266999      -0.00595000       0.00503200       0.00695500 
      47      -6.05379257       4.02422650       6.06267718      -0.00602200       0.00324000       0.00572500 
      47     -12.18665456       2.03891078       6.10481712       0.00831400       0.00070600      -0.00685300 
      47     -10.15709776       4.06851340       6.10482431      -0.00100200      -0.00783500      -0.00761100 
      47      -6.09607842       4.06663849      10.17293724       0.00051300       0.00060700      -0.00017700 
      47     -10.15614488       2.03797333       8.13887359       0.00734300      -0.00712300       0.00022100 
      47      -8.12658809       4.06757595       8.13888077      -0.00055500      -0.00070000      -0.00025400 
      47      -0.04077768      -1.98867767       2.07569385       0.00403400      -0.00311200      -0.00544200 
      47      -4.10084414      -4.01734283       0.04163020       0.00456100      -0.00316600      -0.00524000 