  30
   1   1
     5.562541423187900    -0.098647203303764     0.028459724528272
    -0.112010678617043     5.509816863387874     0.028638777251815
    -0.057964613086123     0.074211759576133     6.213981062153064
   1   2
    -0.579490390928608    -0.570671620216522    -0.014235937149979
    -0.570528863560179    -0.583086130591494     0.004777370644992
    -0.011248806049527     0.003092711114535    -0.059051006602656
   1   3
    -0.042239976451424    -0.019877305849367     0.020224032518922
    -0.019412845210479    -0.051777299837143    -0.011031918814502
     0.023193366401920    -0.012611048657219    -0.013320902276895
   1   4
    -0.042240781196832    -0.019871436400221     0.020223134889030
    -0.019400641601909    -0.051759101311591    -0.011028913397065
     0.023194141239022    -0.012613443942522    -0.013321426254690
   1   5
    -0.579477212518853    -0.570674588454635    -0.014233925640942
    -0.570498114044247    -0.583070959582595     0.004790979397063
    -0.011249359844769     0.003079359157899    -0.059052352442580
   1   6
    -0.832765996428573    -0.015180606989771     0.895378443578608
    -0.010565819518638     0.078790836006355     0.007137209669012
     0.893318253925542     0.011367487655217    -0.802813904341053
   1   7
     0.079241109478960    -0.009886384433965    -0.006111646197316
    -0.017976381550411    -0.800941918723572    -0.848457545696573
    -0.021306380385649    -0.847108478835216    -0.754727424971424
   1   8
     0.002019174468892    -0.028537890561036     0.001288588628347
    -0.012288340557547    -0.053688675374754    -0.013490613328136
     0.013586713297600    -0.017076844412902     0.004858050949521
   1   9
    -0.599027114402896     0.692820783652570    -0.004637598054972
     0.696909471048999    -0.615596180339572     0.004281752429109
     0.006679469771071    -0.010970481985359     0.079414176469306
   1  10
    -0.046155952756997    -0.012464858121530     0.002358537005885
    -0.026988766838334     0.000565249014218    -0.002172039817702
     0.020852112803449    -0.008252520936842     0.014154941569303
   1  11
     0.085798376108662     0.005440061175203     0.000088718584366
    -0.008779623569856    -0.777313695879120     0.815857463990291
     0.007472790866805     0.814254863832687    -0.723303485205884
   1  12
    -0.811317906517615    -0.012022281803457    -0.862170920415846
    -0.002124248049213     0.074218231110913    -0.003301564445796
    -0.858916742757917    -0.011417209800752    -0.770432972793098
   1  13
    -0.005454520300028     0.006154481175347    -0.041622205533685
    -0.009026096770911    -0.006350924995111     0.030278500268324
    -0.029183299584081     0.019754156644593    -0.003598637557680
   1  14
    -0.006765147035851    -0.003328367551618     0.027087840950751
     0.003747763730092     0.001715131011014    -0.025020871445130
     0.017762623342221    -0.027156287915549    -0.003164679033995
   1  15
     0.003350677502217    -0.015553441926355    -0.009457290518403
     0.000687802953519     0.007217968854527     0.010251565699055
    -0.005012574542148     0.022429912306757     0.012154058255405
   1  16
    -0.030317700205147     0.012917076795452    -0.041764044212080
     0.014463823073930    -0.012167635065819    -0.025666265200573
    -0.037586361007680    -0.009951751049212    -0.024596188614852
   1  17
     0.010949069304409     0.001034223790418     0.018033633039004
     0.005810728571775    -0.001046364727470     0.019402022397680
     0.012072763971439     0.010600762179247    -0.052680460603102
   1  18
     0.010956153253142     0.001038088545988     0.018036065064684
     0.005818868285110    -0.001049400699283     0.019400525986056
     0.012077675828971     0.010591935670274    -0.052646776722522
   1  19
    -0.030312682970314     0.012912515565103    -0.041766634759179
     0.014468963249523    -0.012179136322534    -0.025663265235697
    -0.037580076145716    -0.009956351757944    -0.024599263670330
   1  20
    -0.017234573273540     0.037213479961420     0.003502041874603
     0.024375151775599    -0.031758227698230     0.044419099383513
    -0.004370989947532     0.050490598404497    -0.018967933671407
   1  21
    -0.005449686800429     0.006147985742361    -0.041590274370473
    -0.009044912398048    -0.006344002757572     0.030252109124837
    -0.029206512267898     0.019760654226232    -0.003601562252359
   1  22
    -0.812299963150848    -0.012016562543570    -0.863273528194915
    -0.002084075809482     0.074326088543993    -0.003294777127272
    -0.860025914685126    -0.011415443500716    -0.771395627034080
   1  23
     0.085871794956777     0.005382361676943     0.000147266837573
    -0.008841783141823    -0.777780526719082     0.816308616246703
     0.007529618895850     0.814708470435351    -0.723614839512615
   1  24
     0.003369134739363    -0.015537349476281    -0.009441409780472
     0.000674822403754     0.007217934292465     0.010211199337726
    -0.005030347447525     0.022424392434286     0.012142483975800
   1  25
    -0.006759411296975    -0.003349710871767     0.027105302613284
     0.003757656534031     0.001728386488924    -0.025053106560942
     0.017761800735198    -0.027166782552349    -0.003176444410988
   1  26
     0.079160817725778    -0.009956670803670    -0.006165442011039
    -0.018058482480483    -0.800063826449862    -0.847497539109649
    -0.021358054781317    -0.846156436836379    -0.753935205612088
   1  27
    -0.832763405426927    -0.015153857039621     0.895519022953159
    -0.010565836399839     0.078847592342039     0.007093265072856
     0.893496252888253     0.011316422348435    -0.803095040912406
   1  28
    -0.046207890422256    -0.012488062722273     0.002364580971497
    -0.027016305642695     0.000569007125302    -0.002193313186445
     0.020846921630608    -0.008246250357539     0.014138311631783
   1  29
    -0.599001631871442     0.692708328436285    -0.004644172549582
     0.696776637975230    -0.615356276782017     0.004277329957966
     0.006613890862999    -0.010906468363923     0.079410868343015
   1  30
     0.002025060383529    -0.028551925947239     0.001295909636998
    -0.012279877282815    -0.053683531769427    -0.013506406464046
     0.013580786245867    -0.017076942842027     0.004841541808308
   2   1
    -0.579477212518854    -0.570674588454635    -0.014233925640942
    -0.570498114044247    -0.583070959582594     0.004790979397063
    -0.011249359844769     0.003079359157899    -0.059052352442580
   2   2
     5.562541423187903    -0.098647203303764     0.028459724528272
    -0.112010678617043     5.509816863387873     0.028638777251814
    -0.057964613086124     0.074211759576133     6.213981062153064
   2   3
    -0.579490390928608    -0.570671620216522    -0.014235937149979
    -0.570528863560179    -0.583086130591493     0.004777370644992
    -0.011248806049527     0.003092711114535    -0.059051006602656
   2   4
    -0.042239976451424    -0.019877305849367     0.020224032518922
    -0.019412845210479    -0.051777299837143    -0.011031918814502
     0.023193366401920    -0.012611048657219    -0.013320902276895
   2   5
    -0.042240781196832    -0.019871436400221     0.020223134889030
    -0.019400641601909    -0.051759101311591    -0.011028913397065
     0.023194141239022    -0.012613443942522    -0.013321426254690
   2   6
    -0.046155952756997    -0.012464858121530     0.002358537005885
    -0.026988766838334     0.000565249014218    -0.002172039817702
     0.020852112803449    -0.008252520936842     0.014154941569303
   2   7
    -0.832765996428573    -0.015180606989771     0.895378443578609
    -0.010565819518638     0.078790836006355     0.007137209669012
     0.893318253925542     0.011367487655217    -0.802813904341053
   2   8
     0.079241109478960    -0.009886384433965    -0.006111646197316
    -0.017976381550411    -0.800941918723572    -0.848457545696573
    -0.021306380385649    -0.847108478835215    -0.754727424971424
   2   9
     0.002019174468892    -0.028537890561036     0.001288588628347
    -0.012288340557547    -0.053688675374754    -0.013490613328136
     0.013586713297600    -0.017076844412902     0.004858050949521
   2  10
    -0.599027114402896     0.692820783652570    -0.004637598054972
     0.696909471048999    -0.615596180339572     0.004281752429109
     0.006679469771071    -0.010970481985359     0.079414176469306
   2  11
     0.003350677502217    -0.015553441926355    -0.009457290518403
     0.000687802953519     0.007217968854527     0.010251565699055
    -0.005012574542148     0.022429912306757     0.012154058255405
   2  12
     0.085798376108662     0.005440061175203     0.000088718584366
    -0.008779623569856    -0.777313695879120     0.815857463990291
     0.007472790866805     0.814254863832687    -0.723303485205884
   2  13
    -0.811317906517615    -0.012022281803457    -0.862170920415847
    -0.002124248049213     0.074218231110913    -0.003301564445796
    -0.858916742757918    -0.011417209800752    -0.770432972793098
   2  14
    -0.005454520300028     0.006154481175347    -0.041622205533685
    -0.009026096770911    -0.006350924995111     0.030278500268324
    -0.029183299584081     0.019754156644593    -0.003598637557680
   2  15
    -0.006765147035851    -0.003328367551618     0.027087840950751
     0.003747763730092     0.001715131011014    -0.025020871445130
     0.017762623342221    -0.027156287915549    -0.003164679033995
   2  16
    -0.017234573273540     0.037213479961420     0.003502041874603
     0.024375151775599    -0.031758227698230     0.044419099383513
    -0.004370989947532     0.050490598404497    -0.018967933671407
   2  17
    -0.030317700205147     0.012917076795452    -0.041764044212080
     0.014463823073930    -0.012167635065819    -0.025666265200573
    -0.037586361007680    -0.009951751049212    -0.024596188614852
   2  18
     0.010949069304409     0.001034223790418     0.018033633039004
     0.005810728571775    -0.001046364727470     0.019402022397680
     0.012072763971439     0.010600762179247    -0.052680460603102
   2  19
     0.010956153253142     0.001038088545988     0.018036065064684
     0.005818868285110    -0.001049400699283     0.019400525986056
     0.012077675828971     0.010591935670274    -0.052646776722522
   2  20
    -0.030312682970314     0.012912515565103    -0.041766634759179
     0.014468963249523    -0.012179136322534    -0.025663265235697
    -0.037580076145716    -0.009956351757944    -0.024599263670330
   2  21
    -0.006759411296975    -0.003349710871767     0.027105302613284
     0.003757656534031     0.001728386488924    -0.025053106560942
     0.017761800735198    -0.027166782552349    -0.003176444410988
   2  22
    -0.005449686800429     0.006147985742361    -0.041590274370473
    -0.009044912398048    -0.006344002757572     0.030252109124837
    -0.029206512267898     0.019760654226232    -0.003601562252359
   2  23
    -0.812299963150848    -0.012016562543570    -0.863273528194916
    -0.002084075809482     0.074326088543993    -0.003294777127272
    -0.860025914685126    -0.011415443500716    -0.771395627034080
   2  24
     0.085871794956777     0.005382361676943     0.000147266837573
    -0.008841783141823    -0.777780526719082     0.816308616246703
     0.007529618895850     0.814708470435351    -0.723614839512615
   2  25
     0.003369134739363    -0.015537349476281    -0.009441409780472
     0.000674822403754     0.007217934292465     0.010211199337726
    -0.005030347447525     0.022424392434286     0.012142483975800
   2  26
     0.002025060383529    -0.028551925947239     0.001295909636998
    -0.012279877282815    -0.053683531769427    -0.013506406464046
     0.013580786245867    -0.017076942842027     0.004841541808308
   2  27
     0.079160817725778    -0.009956670803670    -0.006165442011039
    -0.018058482480483    -0.800063826449862    -0.847497539109649
    -0.021358054781317    -0.846156436836379    -0.753935205612088
   2  28
    -0.832763405426927    -0.015153857039621     0.895519022953160
    -0.010565836399839     0.078847592342039     0.007093265072856
     0.893496252888253     0.011316422348435    -0.803095040912406
   2  29
    -0.046207890422256    -0.012488062722273     0.002364580971497
    -0.027016305642695     0.000569007125302    -0.002193313186445
     0.020846921630608    -0.008246250357539     0.014138311631783
   2  30
    -0.599001631871442     0.692708328436285    -0.004644172549582
     0.696776637975230    -0.615356276782017     0.004277329957966
     0.006613890862999    -0.010906468363923     0.079410868343015
   3   1
    -0.042240781196832    -0.019871436400221     0.020223134889030
    -0.019400641601909    -0.051759101311591    -0.011028913397065
     0.023194141239022    -0.012613443942522    -0.013321426254690
   3   2
    -0.579477212518854    -0.570674588454635    -0.014233925640942
    -0.570498114044247    -0.583070959582594     0.004790979397063
    -0.011249359844769     0.003079359157899    -0.059052352442580
   3   3
     5.562541423187903    -0.098647203303764     0.028459724528272
    -0.112010678617043     5.509816863387873     0.028638777251814
    -0.057964613086124     0.074211759576133     6.213981062153064
   3   4
    -0.579490390928608    -0.570671620216522    -0.014235937149979
    -0.570528863560179    -0.583086130591493     0.004777370644992
    -0.011248806049527     0.003092711114535    -0.059051006602656
   3   5
    -0.042239976451424    -0.019877305849367     0.020224032518922
    -0.019412845210479    -0.051777299837143    -0.011031918814502
     0.023193366401920    -0.012611048657219    -0.013320902276895
   3   6
    -0.599027114402896     0.692820783652570    -0.004637598054972
     0.696909471048999    -0.615596180339572     0.004281752429109
     0.006679469771071    -0.010970481985359     0.079414176469306
   3   7
    -0.046155952756997    -0.012464858121530     0.002358537005885
    -0.026988766838334     0.000565249014218    -0.002172039817702
     0.020852112803449    -0.008252520936842     0.014154941569303
   3   8
    -0.832765996428573    -0.015180606989771     0.895378443578609
    -0.010565819518638     0.078790836006355     0.007137209669012
     0.893318253925542     0.011367487655217    -0.802813904341053
   3   9
     0.079241109478960    -0.009886384433965    -0.006111646197316
    -0.017976381550411    -0.800941918723572    -0.848457545696573
    -0.021306380385649    -0.847108478835215    -0.754727424971424
   3  10
     0.002019174468892    -0.028537890561036     0.001288588628347
    -0.012288340557547    -0.053688675374754    -0.013490613328136
     0.013586713297600    -0.017076844412902     0.004858050949521
   3  11
    -0.006765147035851    -0.003328367551618     0.027087840950751
     0.003747763730092     0.001715131011014    -0.025020871445130
     0.017762623342221    -0.027156287915549    -0.003164679033995
   3  12
     0.003350677502217    -0.015553441926355    -0.009457290518403
     0.000687802953519     0.007217968854527     0.010251565699055
    -0.005012574542148     0.022429912306757     0.012154058255405
   3  13
     0.085798376108662     0.005440061175203     0.000088718584366
    -0.008779623569856    -0.777313695879120     0.815857463990291
     0.007472790866805     0.814254863832687    -0.723303485205884
   3  14
    -0.811317906517615    -0.012022281803457    -0.862170920415847
    -0.002124248049213     0.074218231110913    -0.003301564445796
    -0.858916742757918    -0.011417209800752    -0.770432972793098
   3  15
    -0.005454520300028     0.006154481175347    -0.041622205533685
    -0.009026096770911    -0.006350924995111     0.030278500268324
    -0.029183299584081     0.019754156644593    -0.003598637557680
   3  16
    -0.030312682970314     0.012912515565103    -0.041766634759179
     0.014468963249523    -0.012179136322534    -0.025663265235697
    -0.037580076145716    -0.009956351757944    -0.024599263670330
   3  17
    -0.017234573273540     0.037213479961420     0.003502041874603
     0.024375151775599    -0.031758227698230     0.044419099383513
    -0.004370989947532     0.050490598404497    -0.018967933671407
   3  18
    -0.030317700205147     0.012917076795452    -0.041764044212080
     0.014463823073930    -0.012167635065819    -0.025666265200573
    -0.037586361007680    -0.009951751049212    -0.024596188614852
   3  19
     0.010949069304409     0.001034223790418     0.018033633039004
     0.005810728571775    -0.001046364727470     0.019402022397680
     0.012072763971439     0.010600762179247    -0.052680460603102
   3  20
     0.010956153253142     0.001038088545988     0.018036065064684
     0.005818868285110    -0.001049400699283     0.019400525986056
     0.012077675828971     0.010591935670274    -0.052646776722522
   3  21
     0.003369134739363    -0.015537349476281    -0.009441409780472
     0.000674822403754     0.007217934292465     0.010211199337726
    -0.005030347447525     0.022424392434286     0.012142483975800
   3  22
    -0.006759411296975    -0.003349710871767     0.027105302613284
     0.003757656534031     0.001728386488924    -0.025053106560942
     0.017761800735198    -0.027166782552349    -0.003176444410988
   3  23
    -0.005449686800429     0.006147985742361    -0.041590274370473
    -0.009044912398048    -0.006344002757572     0.030252109124837
    -0.029206512267898     0.019760654226232    -0.003601562252359
   3  24
    -0.812299963150848    -0.012016562543570    -0.863273528194916
    -0.002084075809482     0.074326088543993    -0.003294777127272
    -0.860025914685126    -0.011415443500716    -0.771395627034080
   3  25
     0.085871794956777     0.005382361676943     0.000147266837573
    -0.008841783141823    -0.777780526719082     0.816308616246703
     0.007529618895850     0.814708470435351    -0.723614839512615
   3  26
    -0.599001631871442     0.692708328436285    -0.004644172549582
     0.696776637975230    -0.615356276782017     0.004277329957966
     0.006613890862999    -0.010906468363923     0.079410868343015
   3  27
     0.002025060383529    -0.028551925947239     0.001295909636998
    -0.012279877282815    -0.053683531769427    -0.013506406464046
     0.013580786245867    -0.017076942842027     0.004841541808308
   3  28
     0.079160817725778    -0.009956670803670    -0.006165442011039
    -0.018058482480483    -0.800063826449862    -0.847497539109649
    -0.021358054781317    -0.846156436836379    -0.753935205612088
   3  29
    -0.832763405426927    -0.015153857039621     0.895519022953160
    -0.010565836399839     0.078847592342039     0.007093265072856
     0.893496252888253     0.011316422348435    -0.803095040912406
   3  30
    -0.046207890422256    -0.012488062722273     0.002364580971497
    -0.027016305642695     0.000569007125302    -0.002193313186445
     0.020846921630608    -0.008246250357539     0.014138311631783
   4   1
    -0.042239976451424    -0.019877305849367     0.020224032518922
    -0.019412845210479    -0.051777299837143    -0.011031918814502
     0.023193366401920    -0.012611048657219    -0.013320902276895
   4   2
    -0.042240781196832    -0.019871436400221     0.020223134889030
    -0.019400641601909    -0.051759101311591    -0.011028913397065
     0.023194141239022    -0.012613443942522    -0.013321426254690
   4   3
    -0.579477212518854    -0.570674588454635    -0.014233925640942
    -0.570498114044247    -0.583070959582594     0.004790979397063
    -0.011249359844769     0.003079359157899    -0.059052352442580
   4   4
     5.562541423187903    -0.098647203303764     0.028459724528272
    -0.112010678617043     5.509816863387873     0.028638777251814
    -0.057964613086124     0.074211759576133     6.213981062153064
   4   5
    -0.579490390928608    -0.570671620216522    -0.014235937149979
    -0.570528863560179    -0.583086130591493     0.004777370644992
    -0.011248806049527     0.003092711114535    -0.059051006602656
   4   6
     0.002019174468892    -0.028537890561036     0.001288588628347
    -0.012288340557547    -0.053688675374754    -0.013490613328136
     0.013586713297600    -0.017076844412902     0.004858050949521
   4   7
    -0.599027114402896     0.692820783652570    -0.004637598054972
     0.696909471048999    -0.615596180339572     0.004281752429109
     0.006679469771071    -0.010970481985359     0.079414176469306
   4   8
    -0.046155952756997    -0.012464858121530     0.002358537005885
    -0.026988766838334     0.000565249014218    -0.002172039817702
     0.020852112803449    -0.008252520936842     0.014154941569303
   4   9
    -0.832765996428573    -0.015180606989771     0.895378443578609
    -0.010565819518638     0.078790836006355     0.007137209669012
     0.893318253925542     0.011367487655217    -0.802813904341053
   4  10
     0.079241109478960    -0.009886384433965    -0.006111646197316
    -0.017976381550411    -0.800941918723572    -0.848457545696573
    -0.021306380385649    -0.847108478835215    -0.754727424971424
   4  11
    -0.005454520300028     0.006154481175347    -0.041622205533685
    -0.009026096770911    -0.006350924995111     0.030278500268324
    -0.029183299584081     0.019754156644593    -0.003598637557680
   4  12
    -0.006765147035851    -0.003328367551618     0.027087840950751
     0.003747763730092     0.001715131011014    -0.025020871445130
     0.017762623342221    -0.027156287915549    -0.003164679033995
   4  13
     0.003350677502217    -0.015553441926355    -0.009457290518403
     0.000687802953519     0.007217968854527     0.010251565699055
    -0.005012574542148     0.022429912306757     0.012154058255405
   4  14
     0.085798376108662     0.005440061175203     0.000088718584366
    -0.008779623569856    -0.777313695879120     0.815857463990291
     0.007472790866805     0.814254863832687    -0.723303485205884
   4  15
    -0.811317906517615    -0.012022281803457    -0.862170920415847
    -0.002124248049213     0.074218231110913    -0.003301564445796
    -0.858916742757918    -0.011417209800752    -0.770432972793098
   4  16
     0.010956153253142     0.001038088545988     0.018036065064684
     0.005818868285110    -0.001049400699283     0.019400525986056
     0.012077675828971     0.010591935670274    -0.052646776722522
   4  17
    -0.030312682970314     0.012912515565103    -0.041766634759179
     0.014468963249523    -0.012179136322534    -0.025663265235697
    -0.037580076145716    -0.009956351757944    -0.024599263670330
   4  18
    -0.017234573273540     0.037213479961420     0.003502041874603
     0.024375151775599    -0.031758227698230     0.044419099383513
    -0.004370989947532     0.050490598404497    -0.018967933671407
   4  19
    -0.030317700205147     0.012917076795452    -0.041764044212080
     0.014463823073930    -0.012167635065819    -0.025666265200573
    -0.037586361007680    -0.009951751049212    -0.024596188614852
   4  20
     0.010949069304409     0.001034223790418     0.018033633039004
     0.005810728571775    -0.001046364727470     0.019402022397680
     0.012072763971439     0.010600762179247    -0.052680460603102
   4  21
     0.085871794956777     0.005382361676943     0.000147266837573
    -0.008841783141823    -0.777780526719082     0.816308616246703
     0.007529618895850     0.814708470435351    -0.723614839512615
   4  22
     0.003369134739363    -0.015537349476281    -0.009441409780472
     0.000674822403754     0.007217934292465     0.010211199337726
    -0.005030347447525     0.022424392434286     0.012142483975800
   4  23
    -0.006759411296975    -0.003349710871767     0.027105302613284
     0.003757656534031     0.001728386488924    -0.025053106560942
     0.017761800735198    -0.027166782552349    -0.003176444410988
   4  24
    -0.005449686800429     0.006147985742361    -0.041590274370473
    -0.009044912398048    -0.006344002757572     0.030252109124837
    -0.029206512267898     0.019760654226232    -0.003601562252359
   4  25
    -0.812299963150848    -0.012016562543570    -0.863273528194916
    -0.002084075809482     0.074326088543993    -0.003294777127272
    -0.860025914685126    -0.011415443500716    -0.771395627034080
   4  26
    -0.046207890422256    -0.012488062722273     0.002364580971497
    -0.027016305642695     0.000569007125302    -0.002193313186445
     0.020846921630608    -0.008246250357539     0.014138311631783
   4  27
    -0.599001631871442     0.692708328436285    -0.004644172549582
     0.696776637975230    -0.615356276782017     0.004277329957966
     0.006613890862999    -0.010906468363923     0.079410868343015
   4  28
     0.002025060383529    -0.028551925947239     0.001295909636998
    -0.012279877282815    -0.053683531769427    -0.013506406464046
     0.013580786245867    -0.017076942842027     0.004841541808308
   4  29
     0.079160817725778    -0.009956670803670    -0.006165442011039
    -0.018058482480483    -0.800063826449862    -0.847497539109649
    -0.021358054781317    -0.846156436836379    -0.753935205612088
   4  30
    -0.832763405426927    -0.015153857039621     0.895519022953160
    -0.010565836399839     0.078847592342039     0.007093265072856
     0.893496252888253     0.011316422348435    -0.803095040912406
   5   1
    -0.579490390928608    -0.570671620216522    -0.014235937149979
    -0.570528863560179    -0.583086130591493     0.004777370644992
    -0.011248806049527     0.003092711114535    -0.059051006602656
   5   2
    -0.042239976451424    -0.019877305849367     0.020224032518922
    -0.019412845210479    -0.051777299837143    -0.011031918814502
     0.023193366401920    -0.012611048657219    -0.013320902276895
   5   3
    -0.042240781196832    -0.019871436400221     0.020223134889030
    -0.019400641601909    -0.051759101311591    -0.011028913397065
     0.023194141239022    -0.012613443942522    -0.013321426254690
   5   4
    -0.579477212518854    -0.570674588454635    -0.014233925640942
    -0.570498114044247    -0.583070959582594     0.004790979397063
    -0.011249359844769     0.003079359157899    -0.059052352442580
   5   5
     5.562541423187903    -0.098647203303764     0.028459724528272
    -0.112010678617043     5.509816863387873     0.028638777251814
    -0.057964613086124     0.074211759576133     6.213981062153064
   5   6
     0.079241109478960    -0.009886384433965    -0.006111646197316
    -0.017976381550411    -0.800941918723572    -0.848457545696573
    -0.021306380385649    -0.847108478835215    -0.754727424971424
   5   7
     0.002019174468892    -0.028537890561036     0.001288588628347
    -0.012288340557547    -0.053688675374754    -0.013490613328136
     0.013586713297600    -0.017076844412902     0.004858050949521
   5   8
    -0.599027114402896     0.692820783652570    -0.004637598054972
     0.696909471048999    -0.615596180339572     0.004281752429109
     0.006679469771071    -0.010970481985359     0.079414176469306
   5   9
    -0.046155952756997    -0.012464858121530     0.002358537005885
    -0.026988766838334     0.000565249014218    -0.002172039817702
     0.020852112803449    -0.008252520936842     0.014154941569303
   5  10
    -0.832765996428573    -0.015180606989771     0.895378443578609
    -0.010565819518638     0.078790836006355     0.007137209669012
     0.893318253925542     0.011367487655217    -0.802813904341053
   5  11
    -0.811317906517615    -0.012022281803457    -0.862170920415847
    -0.002124248049213     0.074218231110913    -0.003301564445796
    -0.858916742757918    -0.011417209800752    -0.770432972793098
   5  12
    -0.005454520300028     0.006154481175347    -0.041622205533685
    -0.009026096770911    -0.006350924995111     0.030278500268324
    -0.029183299584081     0.019754156644593    -0.003598637557680
   5  13
    -0.006765147035851    -0.003328367551618     0.027087840950751
     0.003747763730092     0.001715131011014    -0.025020871445130
     0.017762623342221    -0.027156287915549    -0.003164679033995
   5  14
     0.003350677502217    -0.015553441926355    -0.009457290518403
     0.000687802953519     0.007217968854527     0.010251565699055
    -0.005012574542148     0.022429912306757     0.012154058255405
   5  15
     0.085798376108662     0.005440061175203     0.000088718584366
    -0.008779623569856    -0.777313695879120     0.815857463990291
     0.007472790866805     0.814254863832687    -0.723303485205884
   5  16
     0.010949069304409     0.001034223790418     0.018033633039004
     0.005810728571775    -0.001046364727470     0.019402022397680
     0.012072763971439     0.010600762179247    -0.052680460603102
   5  17
     0.010956153253142     0.001038088545988     0.018036065064684
     0.005818868285110    -0.001049400699283     0.019400525986056
     0.012077675828971     0.010591935670274    -0.052646776722522
   5  18
    -0.030312682970314     0.012912515565103    -0.041766634759179
     0.014468963249523    -0.012179136322534    -0.025663265235697
    -0.037580076145716    -0.009956351757944    -0.024599263670330
   5  19
    -0.017234573273540     0.037213479961420     0.003502041874603
     0.024375151775599    -0.031758227698230     0.044419099383513
    -0.004370989947532     0.050490598404497    -0.018967933671407
   5  20
    -0.030317700205147     0.012917076795452    -0.041764044212080
     0.014463823073930    -0.012167635065819    -0.025666265200573
    -0.037586361007680    -0.009951751049212    -0.024596188614852
   5  21
    -0.812299963150848    -0.012016562543570    -0.863273528194916
    -0.002084075809482     0.074326088543993    -0.003294777127272
    -0.860025914685126    -0.011415443500716    -0.771395627034080
   5  22
     0.085871794956777     0.005382361676943     0.000147266837573
    -0.008841783141823    -0.777780526719082     0.816308616246703
     0.007529618895850     0.814708470435351    -0.723614839512615
   5  23
     0.003369134739363    -0.015537349476281    -0.009441409780472
     0.000674822403754     0.007217934292465     0.010211199337726