  30
   1   1
     7.179830211724596     0.403146450476571     0.044739125837620
     0.420207806209480     7.189993160690177     0.023393000329259
     0.013685641313191     0.003686303292292     7.663786434274939
   1   2
    -0.965952444058822    -0.907646572575194    -0.000964031530384
    -1.232809114065616    -0.965681898214703     0.015745245233648
     0.013442888576496     0.001868124827622     0.101773410033083
   1   3
     0.007261438002672    -0.044355475483114    -0.028562129542613
     0.027075842524491     0.004838283390594    -0.006787334133371
    -0.007375206939428    -0.030529091611434    -0.079651255915714
   1   4
     0.007779978188119     0.027801020579828    -0.008508347806456
    -0.045025303666126     0.004303447240074    -0.031015318457208
    -0.028139935288275    -0.005599544320304    -0.079834070539983
   1   5
    -0.965549265862598    -1.232335274227945     0.012603575763177
    -0.908196880093875    -0.965916598377780     0.000704498780841
     0.000745011133052     0.016035733506179     0.101405679155538
   1   6
     0.091201881382502    -0.026794509204144    -0.011865810087750
    -0.012348525229554    -0.941497390387727    -1.152039079340730
    -0.040003572779737    -1.069029775642808    -1.016491575021573
   1   7
    -0.051335392488680    -0.061795713131116    -0.044241682125418
    -0.062918644026668    -0.048096384358101    -0.044208102348869
    -0.057583489318030    -0.056129674114028    -0.003946501221819
   1   8
    -0.936756732275433    -0.011977434771030    -1.156335512632280
    -0.031291095977944     0.092322225138297    -0.008320357000585
    -1.070771466849259    -0.038379503953363    -1.011336881063004
   1   9
     0.050770569674744    -0.084111341031570     0.034056797889219
    -0.053985842071916    -0.941521173351872     1.174980792591618
     0.062850748874783     1.106413297217133    -1.001869723176439
   1  10
    -0.939383625300524    -0.051925133922516     1.175638850836997
    -0.080974721698621     0.048852607989903     0.037553799936579
     1.106567345613547     0.066415555479618    -1.009402246746547
   1  11
    -1.103356141579493     1.285185570117330     0.005813708486802
     1.281746098945505    -1.106764963726813     0.003381975955740
    -0.002050700030886     0.003616434465601     0.186573683065783
   1  12
     0.069608513701844    -0.051628356692255    -0.049433224894311
    -0.016659838140717    -0.059963411194469     0.020752381415308
    -0.019579313627793    -0.009416385125214     0.054839171104962
   1  13
     0.058576694535064     0.060000079348188     0.084133598492405
     0.013305083202705     0.039198843481475    -0.063280161689376
     0.054553626467578    -0.022053261169653    -0.019810002446513
   1  14
     0.040775854854239     0.018244221598983    -0.061573520875303
     0.063482973427759     0.062469624591757     0.088312372284889
    -0.020784644223482     0.055906778288923    -0.020341413283960
   1  15
    -0.063558414429724    -0.013623075792655     0.016805571884289
    -0.045331283345383     0.073429837009530    -0.049095867572876
    -0.008439570613001    -0.022838553863992     0.045739323777023
   1  16
    -0.026564187653908     0.054392253719394    -0.003387859124439
     0.027981466315629    -0.041872145565522    -0.015982804348444
    -0.002097290056555    -0.000311393389229     0.024731075942967
   1  17
     0.006217059273884     0.020582705881318    -0.016253035882136
     0.021319639941507     0.002444827080242    -0.021515236935562
    -0.010024088619483    -0.014009885078198    -0.024056857296628
   1  18
    -0.046132422889657     0.025906689570251    -0.015200705151595
     0.054146436020776    -0.020635900758372    -0.006065856914236
     0.001359872875006    -0.005861757659773     0.023842154226997
   1  19
    -0.034191709031374     0.057617659154658    -0.032181195269994
     0.044782579485927    -0.048164017093040     0.062253590738603
    -0.015822582412144     0.026711673839261    -0.006484943079707
   1  20
    -0.048680953390735     0.045559051763241     0.071025640753330
     0.054690117833046    -0.038158372193105    -0.034515481329013
     0.035069198200727    -0.019558307584144    -0.005865668377458
   1  21
     0.033317405768595     0.020653050092781    -0.015053554836587
     0.019836713477028     0.010086402247648     0.002859526335649
    -0.013787453411050     0.002988408725485    -0.012652122330876
   1  22
     0.012844533248380     0.017546523467370    -0.000726168044741
     0.017638242533913     0.031226588136545    -0.014093150568501
     0.000188020502533    -0.013354291728894    -0.016001435070236
   1  23
    -0.030605398764177     0.009319784724133     0.013413572103135
     0.009040790660532    -0.048725747812952     0.008395481543779
     0.014952021623273     0.009028506359899     0.042045969739337
   1  24
    -0.554797565741511     0.495783015499624    -0.012443829005576
     0.494845239970273    -0.564403112433228    -0.009140893358845
    -0.011373169258227    -0.008202094845321     0.035265068649471
   1  25
    -0.052127440295097     0.013128329142784     0.003077425557209
     0.012173232492566    -0.023248277255841     0.017805572094339
     0.003840563060653     0.018619101621639     0.032561326692908
   1  26
    -0.998844865750042     0.010868752335891    -1.153161654156046
    -0.025239728250356     0.138391106569851    -0.008341001599412
    -1.153083311558057     0.020549938762873    -0.996679544207076
   1  27
    -0.009556412643648    -0.025544471516606    -0.020326482426188
    -0.026724301998311    -0.008972490980678    -0.019991610014445
    -0.012410555700872    -0.012056870273256    -0.001361811388705
   1  28
     0.136807132903803    -0.024125692441266    -0.010867511460364
     0.010095963230562    -1.004555729081146    -1.155746649683414
     0.020436950112547    -1.154490888675999    -1.005945168357784
   1  29
    -0.995717699232180     0.002666643245517     1.165701125771450
    -0.033836665432512     0.126977474736515     0.014708257845701
     1.166308609303226    -0.018857492282966    -1.000475755466295
   1  30
     0.128119348838157    -0.032539082032290     0.014079580323771
     0.002972961265019    -0.996358562123487     1.169291900896698
    -0.020672354602182     1.168839434503935    -1.000356243849571
   2   1
    -0.965549265862598    -1.232335274227945     0.012603575763177
    -0.908196880093875    -0.965916598377780     0.000704498780841
     0.000745011133052     0.016035733506179     0.101405679155538
   2   2
     7.179830211724596     0.403146450476571     0.044739125837620
     0.420207806209480     7.189993160690177     0.023393000329259
     0.013685641313191     0.003686303292291     7.663786434274937
   2   3
    -0.965952444058822    -0.907646572575194    -0.000964031530384
    -1.232809114065616    -0.965681898214703     0.015745245233648
     0.013442888576496     0.001868124827622     0.101773410033083
   2   4
     0.007261438002672    -0.044355475483114    -0.028562129542613
     0.027075842524491     0.004838283390594    -0.006787334133371
    -0.007375206939428    -0.030529091611434    -0.079651255915714
   2   5
     0.007779978188119     0.027801020579828    -0.008508347806456
    -0.045025303666126     0.004303447240074    -0.031015318457208
    -0.028139935288275    -0.005599544320304    -0.079834070539983
   2   6
    -0.939383625300525    -0.051925133922516     1.175638850836997
    -0.080974721698621     0.048852607989903     0.037553799936579
     1.106567345613546     0.066415555479618    -1.009402246746547
   2   7
     0.091201881382502    -0.026794509204144    -0.011865810087750
    -0.012348525229554    -0.941497390387726    -1.152039079340730
    -0.040003572779737    -1.069029775642808    -1.016491575021572
   2   8
    -0.051335392488680    -0.061795713131116    -0.044241682125418
    -0.062918644026668    -0.048096384358101    -0.044208102348869
    -0.057583489318030    -0.056129674114028    -0.003946501221819
   2   9
    -0.936756732275433    -0.011977434771029    -1.156335512632279
    -0.031291095977944     0.092322225138297    -0.008320357000585
    -1.070771466849259    -0.038379503953363    -1.011336881063004
   2  10
     0.050770569674744    -0.084111341031570     0.034056797889219
    -0.053985842071916    -0.941521173351873     1.174980792591618
     0.062850748874783     1.106413297217133    -1.001869723176439
   2  11
    -0.063558414429724    -0.013623075792655     0.016805571884289
    -0.045331283345383     0.073429837009530    -0.049095867572876
    -0.008439570613001    -0.022838553863992     0.045739323777023
   2  12
    -1.103356141579493     1.285185570117330     0.005813708486802
     1.281746098945505    -1.106764963726813     0.003381975955740
    -0.002050700030886     0.003616434465601     0.186573683065783
   2  13
     0.069608513701844    -0.051628356692255    -0.049433224894311
    -0.016659838140717    -0.059963411194469     0.020752381415308
    -0.019579313627793    -0.009416385125214     0.054839171104962
   2  14
     0.058576694535064     0.060000079348188     0.084133598492405
     0.013305083202705     0.039198843481475    -0.063280161689376
     0.054553626467578    -0.022053261169653    -0.019810002446513
   2  15
     0.040775854854239     0.018244221598983    -0.061573520875303
     0.063482973427759     0.062469624591757     0.088312372284889
    -0.020784644223482     0.055906778288923    -0.020341413283960
   2  16
    -0.048680953390735     0.045559051763241     0.071025640753330
     0.054690117833046    -0.038158372193105    -0.034515481329013
     0.035069198200727    -0.019558307584144    -0.005865668377458
   2  17
    -0.026564187653908     0.054392253719394    -0.003387859124439
     0.027981466315629    -0.041872145565522    -0.015982804348444
    -0.002097290056555    -0.000311393389229     0.024731075942967
   2  18
     0.006217059273884     0.020582705881318    -0.016253035882136
     0.021319639941507     0.002444827080242    -0.021515236935562
    -0.010024088619483    -0.014009885078198    -0.024056857296628
   2  19
    -0.046132422889657     0.025906689570251    -0.015200705151595
     0.054146436020776    -0.020635900758372    -0.006065856914236
     0.001359872875006    -0.005861757659773     0.023842154226997
   2  20
    -0.034191709031374     0.057617659154658    -0.032181195269994
     0.044782579485927    -0.048164017093040     0.062253590738603
    -0.015822582412144     0.026711673839261    -0.006484943079707
   2  21
    -0.052127440295097     0.013128329142784     0.003077425557209
     0.012173232492566    -0.023248277255841     0.017805572094339
     0.003840563060653     0.018619101621639     0.032561326692908
   2  22
     0.033317405768595     0.020653050092781    -0.015053554836587
     0.019836713477028     0.010086402247648     0.002859526335649
    -0.013787453411050     0.002988408725485    -0.012652122330876
   2  23
     0.012844533248380     0.017546523467370    -0.000726168044741
     0.017638242533913     0.031226588136545    -0.014093150568501
     0.000188020502533    -0.013354291728894    -0.016001435070236
   2  24
    -0.030605398764177     0.009319784724133     0.013413572103135
     0.009040790660532    -0.048725747812952     0.008395481543779
     0.014952021623273     0.009028506359899     0.042045969739337
   2  25
    -0.554797565741511     0.495783015499624    -0.012443829005576
     0.494845239970273    -0.564403112433228    -0.009140893358845
    -0.011373169258227    -0.008202094845321     0.035265068649471
   2  26
     0.128119348838157    -0.032539082032290     0.014079580323771
     0.002972961265019    -0.996358562123488     1.169291900896698
    -0.020672354602182     1.168839434503934    -1.000356243849571
   2  27
    -0.998844865750042     0.010868752335891    -1.153161654156046
    -0.025239728250356     0.138391106569851    -0.008341001599412
    -1.153083311558057     0.020549938762873    -0.996679544207076
   2  28
    -0.009556412643648    -0.025544471516606    -0.020326482426188
    -0.026724301998311    -0.008972490980678    -0.019991610014445
    -0.012410555700872    -0.012056870273256    -0.001361811388705
   2  29
     0.136807132903803    -0.024125692441265    -0.010867511460364
     0.010095963230563    -1.004555729081146    -1.155746649683414
     0.020436950112547    -1.154490888675998    -1.005945168357784
   2  30
    -0.995717699232180     0.002666643245516     1.165701125771450
    -0.033836665432512     0.126977474736515     0.014708257845701
     1.166308609303226    -0.018857492282966    -1.000475755466295
   3   1
     0.007779978188119     0.027801020579828    -0.008508347806456
    -0.045025303666126     0.004303447240074    -0.031015318457208
    -0.028139935288275    -0.005599544320304    -0.079834070539983
   3   2
    -0.965549265862598    -1.232335274227945     0.012603575763177
    -0.908196880093875    -0.965916598377780     0.000704498780841
     0.000745011133052     0.016035733506179     0.101405679155538
   3   3
     7.179830211724596     0.403146450476571     0.044739125837620
     0.420207806209480     7.189993160690177     0.023393000329259
     0.013685641313191     0.003686303292291     7.663786434274937
   3   4
    -0.965952444058822    -0.907646572575194    -0.000964031530384
    -1.232809114065616    -0.965681898214703     0.015745245233648
     0.013442888576496     0.001868124827622     0.101773410033083
   3   5
     0.007261438002672    -0.044355475483114    -0.028562129542613
     0.027075842524491     0.004838283390594    -0.006787334133371
    -0.007375206939428    -0.030529091611434    -0.079651255915714
   3   6
     0.050770569674744    -0.084111341031570     0.034056797889219
    -0.053985842071916    -0.941521173351873     1.174980792591618
     0.062850748874783     1.106413297217133    -1.001869723176439
   3   7
    -0.939383625300525    -0.051925133922516     1.175638850836997
    -0.080974721698621     0.048852607989903     0.037553799936579
     1.106567345613546     0.066415555479618    -1.009402246746547
   3   8
     0.091201881382502    -0.026794509204144    -0.011865810087750
    -0.012348525229554    -0.941497390387726    -1.152039079340730
    -0.040003572779737    -1.069029775642808    -1.016491575021572
   3   9
    -0.051335392488680    -0.061795713131116    -0.044241682125418
    -0.062918644026668    -0.048096384358101    -0.044208102348869
    -0.057583489318030    -0.056129674114028    -0.003946501221819
   3  10
    -0.936756732275433    -0.011977434771029    -1.156335512632279
    -0.031291095977944     0.092322225138297    -0.008320357000585
    -1.070771466849259    -0.038379503953363    -1.011336881063004
   3  11
     0.040775854854239     0.018244221598983    -0.061573520875303
     0.063482973427759     0.062469624591757     0.088312372284889
    -0.020784644223482     0.055906778288923    -0.020341413283960
   3  12
    -0.063558414429724    -0.013623075792655     0.016805571884289
    -0.045331283345383     0.073429837009530    -0.049095867572876
    -0.008439570613001    -0.022838553863992     0.045739323777023
   3  13
    -1.103356141579493     1.285185570117330     0.005813708486802
     1.281746098945505    -1.106764963726813     0.003381975955740
    -0.002050700030886     0.003616434465601     0.186573683065783
   3  14
     0.069608513701844    -0.051628356692255    -0.049433224894311
    -0.016659838140717    -0.059963411194469     0.020752381415308
    -0.019579313627793    -0.009416385125214     0.054839171104962
   3  15
     0.058576694535064     0.060000079348188     0.084133598492405
     0.013305083202705     0.039198843481475    -0.063280161689376
     0.054553626467578    -0.022053261169653    -0.019810002446513
   3  16
    -0.034191709031374     0.057617659154658    -0.032181195269994
     0.044782579485927    -0.048164017093040     0.062253590738603
    -0.015822582412144     0.026711673839261    -0.006484943079707
   3  17
    -0.048680953390735     0.045559051763241     0.071025640753330
     0.054690117833046    -0.038158372193105    -0.034515481329013
     0.035069198200727    -0.019558307584144    -0.005865668377458
   3  18
    -0.026564187653908     0.054392253719394    -0.003387859124439
     0.027981466315629    -0.041872145565522    -0.015982804348444
    -0.002097290056555    -0.000311393389229     0.024731075942967
   3  19
     0.006217059273884     0.020582705881318    -0.016253035882136
     0.021319639941507     0.002444827080242    -0.021515236935562
    -0.010024088619483    -0.014009885078198    -0.024056857296628
   3  20
    -0.046132422889657     0.025906689570251    -0.015200705151595
     0.054146436020776    -0.020635900758372    -0.006065856914236
     0.001359872875006    -0.005861757659773     0.023842154226997
   3  21
    -0.554797565741511     0.495783015499624    -0.012443829005576
     0.494845239970273    -0.564403112433228    -0.009140893358845
    -0.011373169258227    -0.008202094845321     0.035265068649471
   3  22
    -0.052127440295097     0.013128329142784     0.003077425557209
     0.012173232492566    -0.023248277255841     0.017805572094339
     0.003840563060653     0.018619101621639     0.032561326692908
   3  23
     0.033317405768595     0.020653050092781    -0.015053554836587
     0.019836713477028     0.010086402247648     0.002859526335649
    -0.013787453411050     0.002988408725485    -0.012652122330876
   3  24
     0.012844533248380     0.017546523467370    -0.000726168044741
     0.017638242533913     0.031226588136545    -0.014093150568501
     0.000188020502533    -0.013354291728894    -0.016001435070236
   3  25
    -0.030605398764177     0.009319784724133     0.013413572103135
     0.009040790660532    -0.048725747812952     0.008395481543779
     0.014952021623273     0.009028506359899     0.042045969739337
   3  26
    -0.995717699232180     0.002666643245516     1.165701125771450
    -0.033836665432512     0.126977474736515     0.014708257845701
     1.166308609303226    -0.018857492282966    -1.000475755466295
   3  27
     0.128119348838157    -0.032539082032290     0.014079580323771
     0.002972961265019    -0.996358562123488     1.169291900896698
    -0.020672354602182     1.168839434503934    -1.000356243849571
   3  28
    -0.998844865750042     0.010868752335891    -1.153161654156046
    -0.025239728250356     0.138391106569851    -0.008341001599412
    -1.153083311558057     0.020549938762873    -0.996679544207076
   3  29
    -0.009556412643648    -0.025544471516606    -0.020326482426188
    -0.026724301998311    -0.008972490980678    -0.019991610014445
    -0.012410555700872    -0.012056870273256    -0.001361811388705
   3  30
     0.136807132903803    -0.024125692441265    -0.010867511460364
     0.010095963230563    -1.004555729081146    -1.155746649683414
     0.020436950112547    -1.154490888675998    -1.005945168357784
   4   1
     0.007261438002672    -0.044355475483114    -0.028562129542613
     0.027075842524491     0.004838283390594    -0.006787334133371
    -0.007375206939428    -0.030529091611434    -0.079651255915714
   4   2
     0.007779978188119     0.027801020579828    -0.008508347806456
    -0.045025303666126     0.004303447240074    -0.031015318457208
    -0.028139935288275    -0.005599544320304    -0.079834070539983
   4   3
    -0.965549265862598    -1.232335274227945     0.012603575763177
    -0.908196880093875    -0.965916598377780     0.000704498780841
     0.000745011133052     0.016035733506179     0.101405679155538
   4   4
     7.179830211724596     0.403146450476571     0.044739125837620
     0.420207806209480     7.189993160690177     0.023393000329259
     0.013685641313191     0.003686303292291     7.663786434274937
   4   5
    -0.965952444058822    -0.907646572575194    -0.000964031530384
    -1.232809114065616    -0.965681898214703     0.015745245233648
     0.013442888576496     0.001868124827622     0.101773410033083
   4   6
    -0.936756732275433    -0.011977434771029    -1.156335512632279
    -0.031291095977944     0.092322225138297    -0.008320357000585
    -1.070771466849259    -0.038379503953363    -1.011336881063004
   4   7
     0.050770569674744    -0.084111341031570     0.034056797889219
    -0.053985842071916    -0.941521173351873     1.174980792591618
     0.062850748874783     1.106413297217133    -1.001869723176439
   4   8
    -0.939383625300525    -0.051925133922516     1.175638850836997
    -0.080974721698621     0.048852607989903     0.037553799936579
     1.106567345613546     0.066415555479618    -1.009402246746547
   4   9
     0.091201881382502    -0.026794509204144    -0.011865810087750
    -0.012348525229554    -0.941497390387726    -1.152039079340730
    -0.040003572779737    -1.069029775642808    -1.016491575021572
   4  10
    -0.051335392488680    -0.061795713131116    -0.044241682125418
    -0.062918644026668    -0.048096384358101    -0.044208102348869
    -0.057583489318030    -0.056129674114028    -0.003946501221819
   4  11
     0.058576694535064     0.060000079348188     0.084133598492405
     0.013305083202705     0.039198843481475    -0.063280161689376
     0.054553626467578    -0.022053261169653    -0.019810002446513
   4  12
     0.040775854854239     0.018244221598983    -0.061573520875303
     0.063482973427759     0.062469624591757     0.088312372284889
    -0.020784644223482     0.055906778288923    -0.020341413283960
   4  13
    -0.063558414429724    -0.013623075792655     0.016805571884289
    -0.045331283345383     0.073429837009530    -0.049095867572876
    -0.008439570613001    -0.022838553863992     0.045739323777023
   4  14
    -1.103356141579493     1.285185570117330     0.005813708486802
     1.281746098945505    -1.106764963726813     0.003381975955740
    -0.002050700030886     0.003616434465601     0.186573683065783
   4  15
     0.069608513701844    -0.051628356692255    -0.049433224894311
    -0.016659838140717    -0.059963411194469     0.020752381415308
    -0.019579313627793    -0.009416385125214     0.054839171104962
   4  16
    -0.046132422889657     0.025906689570251    -0.015200705151595
     0.054146436020776    -0.020635900758372    -0.006065856914236
     0.001359872875006    -0.005861757659773     0.023842154226997
   4  17
    -0.034191709031374     0.057617659154658    -0.032181195269994
     0.044782579485927    -0.048164017093040     0.062253590738603
    -0.015822582412144     0.026711673839261    -0.006484943079707
   4  18
    -0.048680953390735     0.045559051763241     0.071025640753330
     0.054690117833046    -0.038158372193105    -0.034515481329013
     0.035069198200727    -0.019558307584144    -0.005865668377458
   4  19
    -0.026564187653908     0.054392253719394    -0.003387859124439
     0.027981466315629    -0.041872145565522    -0.015982804348444
    -0.002097290056555    -0.000311393389229     0.024731075942967
   4  20
     0.006217059273884     0.020582705881318    -0.016253035882136
     0.021319639941507     0.002444827080242    -0.021515236935562
    -0.010024088619483    -0.014009885078198    -0.024056857296628
   4  21
    -0.030605398764177     0.009319784724133     0.013413572103135
     0.009040790660532    -0.048725747812952     0.008395481543779
     0.014952021623273     0.009028506359899     0.042045969739337
   4  22
    -0.554797565741511     0.495783015499624    -0.012443829005576
     0.494845239970273    -0.564403112433228    -0.009140893358845
    -0.011373169258227    -0.008202094845321     0.035265068649471
   4  23
    -0.052127440295097     0.013128329142784     0.003077425557209
     0.012173232492566    -0.023248277255841     0.017805572094339
     0.003840563060653     0.018619101621639     0.032561326692908
   4  24
     0.033317405768595     0.020653050092781    -0.015053554836587
     0.019836713477028     0.010086402247648     0.002859526335649
    -0.013787453411050     0.002988408725485    -0.012652122330876
   4  25
     0.012844533248380     0.017546523467370    -0.000726168044741
     0.017638242533913     0.031226588136545    -0.014093150568501
     0.000188020502533    -0.013354291728894    -0.016001435070236
   4  26
     0.136807132903803    -0.024125692441265    -0.010867511460364
     0.010095963230563    -1.004555729081146    -1.155746649683414
     0.020436950112547    -1.154490888675998    -1.005945168357784
   4  27
    -0.995717699232180     0.002666643245516     1.165701125771450
    -0.033836665432512     0.126977474736515     0.014708257845701
     1.166308609303226    -0.018857492282966    -1.000475755466295
   4  28
     0.128119348838157    -0.032539082032290     0.014079580323771
     0.002972961265019    -0.996358562123488     1.169291900896698
    -0.020672354602182     1.168839434503934    -1.000356243849571
   4  29
    -0.998844865750042     0.010868752335891    -1.153161654156046
    -0.025239728250356     0.138391106569851    -0.008341001599412
    -1.153083311558057     0.020549938762873    -0.996679544207076
   4  30
    -0.009556412643648    -0.025544471516606    -0.020326482426188
    -0.026724301998311    -0.008972490980678    -0.019991610014445
    -0.012410555700872    -0.012056870273256    -0.001361811388705
   5   1
    -0.965952444058822    -0.907646572575194    -0.000964031530384
    -1.232809114065616    -0.965681898214703     0.015745245233648
     0.013442888576496     0.001868124827622     0.101773410033083
   5   2
     0.007261438002672    -0.044355475483114    -0.028562129542613
     0.027075842524491     0.004838283390594    -0.006787334133371
    -0.007375206939428    -0.030529091611434    -0.079651255915714
   5   3
     0.007779978188119     0.027801020579828    -0.008508347806456
    -0.045025303666126     0.004303447240074    -0.031015318457208
    -0.028139935288275    -0.005599544320304    -0.079834070539983
   5   4
    -0.965549265862598    -1.232335274227945     0.012603575763177
    -0.908196880093875    -0.965916598377780     0.000704498780841
     0.000745011133052     0.016035733506179     0.101405679155538
   5   5
     7.179830211724596     0.403146450476571     0.044739125837620
     0.420207806209480     7.189993160690177     0.023393000329259
     0.013685641313191     0.003686303292291     7.663786434274937
   5   6
    -0.051335392488680    -0.061795713131116    -0.044241682125418
    -0.062918644026668    -0.048096384358101    -0.044208102348869
    -0.057583489318030    -0.056129674114028    -0.003946501221819
   5   7
    -0.936756732275433    -0.011977434771029    -1.156335512632279
    -0.031291095977944     0.092322225138297    -0.008320357000585
    -1.070771466849259    -0.038379503953363    -1.011336881063004
   5   8
     0.050770569674744    -0.084111341031570     0.034056797889219
    -0.053985842071916    -0.941521173351873     1.174980792591618
     0.062850748874783     1.106413297217133    -1.001869723176439
   5   9
    -0.939383625300525    -0.051925133922516     1.175638850836997
    -0.080974721698621     0.048852607989903     0.037553799936579
     1.106567345613546     0.066415555479618    -1.009402246746547
   5  10
     0.091201881382502    -0.026794509204144    -0.011865810087750
    -0.012348525229554    -0.941497390387726    -1.152039079340730
    -0.040003572779737    -1.069029775642808    -1.016491575021572
   5  11
     0.069608513701844    -0.051628356692255    -0.049433224894311
    -0.016659838140717    -0.059963411194469     0.020752381415308
    -0.019579313627793    -0.009416385125214     0.054839171104962
   5  12
     0.058576694535064     0.060000079348188     0.084133598492405
     0.013305083202705     0.039198843481475    -0.063280161689376
     0.054553626467578    -0.022053261169653    -0.019810002446513
   5  13
     0.040775854854239     0.018244221598983    -0.061573520875303
     0.063482973427759     0.062469624591757     0.088312372284889
    -0.020784644223482     0.055906778288923    -0.020341413283960
   5  14
    -0.063558414429724    -0.013623075792655     0.016805571884289
    -0.045331283345383     0.073429837009530    -0.049095867572876
    -0.008439570613001    -0.022838553863992     0.045739323777023
   5  15
    -1.103356141579493     1.285185570117330     0.005813708486802
     1.281746098945505    -1.106764963726813     0.003381975955740
    -0.002050700030886     0.003616434465601     0.186573683065783
   5  16
     0.006217059273884     0.020582705881318    -0.016253035882136
     0.021319639941507     0.002444827080242    -0.021515236935562
    -0.010024088619483    -0.014009885078198    -0.024056857296628
   5  17
    -0.046132422889657     0.025906689570251    -0.015200705151595
     0.054146436020776    -0.020635900758372    -0.006065856914236
     0.001359872875006    -0.005861757659773     0.023842154226997
   5  18
    -0.034191709031374     0.057617659154658    -0.032181195269994
     0.044782579485927    -0.048164017093040     0.062253590738603
    -0.015822582412144     0.026711673839261    -0.006484943079707
   5  19
    -0.048680953390735     0.045559051763241     0.071025640753330
     0.054690117833046    -0.038158372193105    -0.034515481329013
     0.035069198200727    -0.019558307584144    -0.005865668377458
   5  20
    -0.026564187653908     0.054392253719394    -0.003387859124439
     0.027981466315629    -0.041872145565522    -0.015982804348444
    -0.002097290056555    -0.000311393389229     0.024731075942967
   5  21
     0.012844533248380     0.017546523467370    -0.000726168044741
     0.017638242533913     0.031226588136545    -0.014093150568501
     0.000188020502533    -0.013354291728894    -0.016001435070236
   5  22
    -0.030605398764177     0.009319784724133     0.013413572103135
     0.009040790660532    -0.048725747812952     0.008395481543779
     0.014952021623273     0.009028506359899     0.042045969739337
   5  23
    -0.554797565741511     0.495783015499624    -0.012443829005576
     0.494845239970273    -0.564403112433228    -0.009140893358845