30
Lattice="-3.9663255393589556 -3.965276295893179 3.966013871340579 1.9832825246611212 1.98245579512638 7.931963794273521 -5.9631611809955585 5.961412860831066 -0.0001831300179231" Properties=Z:I:1:pos:R:3:vasp_force:R:3 uuid=72eb875c-84bf-4869-9691-00ab645cd17e vasp_virial="-0.0819341488341609 -0.019953103073590352 -0.022241652003415466 -0.019953103073590352 0.061035775550425386 0.06484612172258947 -0.022241652003415466 0.06484612172258947 -0.021922659889155958" vasp_energy=-144.18412432 pbc="T T T"
      46      -0.03349034       0.02180725       0.00584888       0.04528600       0.04371500      -0.04389500 
      46      -2.01085500      -1.95509473       3.96607626      -0.01133800      -0.01142300      -0.00119400 
      46      -0.02766828       0.02750695       3.96606347       0.00170400      -0.00030200      -0.00011600 
      46      -2.01080710      -1.95516767       7.93206455       0.00147800      -0.00006400       0.00017200 
      46      -0.02762037       0.02743401       7.93205176      -0.00906600      -0.01292400      -0.00031900 
      46      -3.98128188      -1.96753863       5.94910110      -0.00182000       0.00141000      -0.00044500 
      46      -1.99809516       0.01506305       5.94908831      -0.00286700      -0.00011000      -0.00047700 
      46      -0.01490844       1.99766472       5.94907552      -0.00261100       0.00059800      -0.00125200 
      46      -1.99804726       0.01499011       9.91507660      -0.00254300      -0.01200000       0.01255800 
      46      -1.99814306       0.01513599       1.98310002      -0.01515200      -0.00077800       0.01295300 
      46      -5.95403990      -1.97813779       3.96596071       0.00137000       0.00054800      -0.00101500 
      46      -3.97085318       0.00446388       3.96594792       0.00078700      -0.00144800      -0.00084600 
      46      -1.98766646       1.98706556       3.96593513       0.00055100       0.00011600       0.00002800 
      46      -3.97080528       0.00439094       7.93193621       0.00118100      -0.00018700       0.00038400 
      46      -1.98761856       1.98699262       7.93192342       0.00053500       0.00005400      -0.00014100 
      46      -5.94358419      -0.00619391       5.94878942       0.00198700       0.00042500      -0.00072600 
      46      -3.96039747       1.97640777       5.94877663       0.00224900       0.00060200      -0.00012500 
      46      -1.97721075       3.95900945       5.94876384       0.00208600       0.00054600       0.00016900 
      46      -3.96034956       1.97633483       9.91476492       0.00253000      -0.00041400       0.00009900 
      46      -3.96044537       1.97648071       1.98278834       0.00259600       0.00024700       0.00032700 
      46      -3.94765470       3.94659696       3.96577674      -0.00208600       0.00091800       0.00133900 
      46      -5.93079352       1.96392234       7.93177782      -0.00184100       0.00155100      -0.00073900 
      46      -3.94760680       3.94652402       7.93176503      -0.00206500       0.00133100      -0.00043600 
      46      -5.93074562       1.96384940      11.89776611      -0.00168800      -0.00019400      -0.00002600 
      46      -5.93084143       1.96399528       3.96578953      -0.00311800       0.00031100       0.00077700 
      47      -7.94402843       1.99384061       5.94884606       0.00151000       0.00042000      -0.00080400 
      47      -5.96084171       3.97644229       5.94883327       0.00007000      -0.00038800      -0.00024400 
      47      -3.97765498       5.95904396       5.94882048       0.00105400       0.00016000      -0.00116000 
      47      -5.96079380       3.97636935       9.91482156      -0.01212500       0.00040100       0.01241400 
      47      -5.96088961       3.97651523       1.98284498       0.00134500      -0.01312000       0.01273900 
30
Lattice="-3.9663255393589556 -3.965276295893179 3.966013871340579 1.9832825246611212 1.98245579512638 7.931963794273521 -5.9631611809955585 5.961412860831066 -0.0001831300179231" Properties=Z:I:1:pos:R:3:vasp_force:R:3 uuid=47eb8f78-722c-4bca-b7d5-b319482f8834 vasp_virial="-0.07550748201843718 -0.019320971911388016 -0.030538373507321102 -0.019320971911388016 0.05654062061920881 0.07588500479586356 -0.030538373507321102 0.07588500479586356 -0.02176755363176372" vasp_energy=-144.18412467 pbc="T T T"
      46      -0.02771618       0.02757989       0.00007517       0.00182600      -0.01382500      -0.01259200 
      46      -2.01085500      -1.95509473       3.96607626       0.01005100      -0.00051300      -0.00754500 
      46      -0.02766828       0.02750695       3.96606347       0.00169200       0.00837200      -0.00698900 
      46      -2.01080710      -1.95516767       7.93206455      -0.01135300      -0.00021600      -0.01198400 
      46      -0.02762037       0.02743401       7.93205176       0.00127800      -0.00056900      -0.00007200 
      46      -3.98363926      -1.96989503       5.93967295       0.01539800       0.01849700       0.07522000 
      46      -1.99809516       0.01506305       5.94908831      -0.00738100      -0.00434400      -0.00005400 
      46      -0.01490844       1.99766472       5.94907552      -0.00282300      -0.00059600      -0.00196800 
      46      -1.99804726       0.01499011       9.91507660      -0.00264400       0.00043000      -0.00154200 
      46      -1.99814306       0.01513599       1.98310002      -0.00727500      -0.00525700      -0.00014100 
      46      -5.95403990      -1.97813779       3.96596071      -0.01276600      -0.00049300      -0.01206500 
      46      -3.97085318       0.00446388       3.96594792       0.00083600       0.00787600      -0.00674100 
      46      -1.98766646       1.98706556       3.96593513       0.00893700      -0.00012500      -0.00652900 
      46      -3.97080528       0.00439094       7.93193621       0.00032400      -0.01292600      -0.01165200 
      46      -1.98761856       1.98699262       7.93192342       0.00022600      -0.00124000       0.00011800 
      46      -5.94358419      -0.00619391       5.94878942       0.00272100       0.00112100       0.00141500 
      46      -3.96039747       1.97640777       5.94877663       0.00159200       0.00005400      -0.00002800 
      46      -1.97721075       3.95900945       5.94876384       0.00274600       0.00066800       0.00059900 
      46      -3.96034956       1.97633483       9.91476492       0.00246900       0.00043400       0.00004500 
      46      -3.96044537       1.97648071       1.98278834       0.00237300      -0.00031800       0.00001100 
      46      -3.94765470       3.94659696       3.96577674      -0.00182000       0.00048800       0.00132600 
      46      -5.93079352       1.96392234       7.93177782      -0.00200000       0.00103100      -0.00052300 
      46      -3.94760680       3.94652402       7.93176503      -0.00195600       0.00148100      -0.00059400 
      46      -5.93074562       1.96384940      11.89776611      -0.00159800       0.00018300       0.00052600 
      46      -5.93084143       1.96399528       3.96578953      -0.00312700       0.00107600       0.00080800 
      47      -7.94402843       1.99384061       5.94884606       0.00119900       0.00016600       0.00152100 
      47      -5.96084171       3.97644229       5.94883327      -0.00000200      -0.00004200       0.00013200 
      47      -3.97765498       5.95904396       5.94882048       0.00021900      -0.00057000      -0.00054200 
      47      -5.96079380       3.97636935       9.91482156       0.00027400      -0.00048500      -0.00024600 
      47      -5.96088961       3.97651523       1.98284498       0.00058500      -0.00035900       0.00008600 
30
Lattice="-3.9663255393589556 -3.965276295893179 3.966013871340579 1.9832825246611212 1.98245579512638 7.931963794273521 -5.9631611809955585 5.961412860831066 -0.0001831300179231" Properties=Z:I:1:pos:R:3:vasp_force:R:3 uuid=af63127a-2678-4f76-9fc4-8e206218ecb0 vasp_virial="-0.06546947328531677 -0.027096770513108402 -0.026066630841371258 -0.027096770513108402 0.06184642523528672 0.07011680794076727 -0.026066630841371258 0.07011680794076727 -0.02290890156351793" vasp_energy=-144.18413796 pbc="T T T"
      46      -0.02771618       0.02757989       0.00007517       0.00253600       0.00607200       0.00700600 
      46      -2.01085500      -1.95509473       3.96607626      -0.00506100      -0.00166700       0.00653400 
      46      -0.02766828       0.02750695       3.96606347       0.00234400       0.00599700      -0.00765700 
      46      -2.01080710      -1.95516767       7.93206455      -0.00500200      -0.00109100      -0.00726800 
      46      -0.02762037       0.02743401       7.93205176       0.00199400       0.00002000       0.00022000 
      46      -3.98835398      -1.96046860       5.94910088       0.05648700      -0.05753800       0.00062900 
      46      -1.99809516       0.01506305       5.94908831      -0.00153100      -0.00051800       0.00009800 
      46      -0.01490844       1.99766472       5.94907552      -0.00316200      -0.00056500      -0.00092000 
      46      -1.99804726       0.01499011       9.91507660      -0.00163100       0.00004000       0.00060100 
      46      -1.99814306       0.01513599       1.98310002      -0.00196300      -0.00146100      -0.00021700 
      46      -5.95403990      -1.97813779       3.96596071      -0.00703700      -0.00108100      -0.00794000 
      46      -3.97085318       0.00446388       3.96594792       0.00076300       0.00628700      -0.00842100 
      46      -1.98766646       1.98706556       3.96593513      -0.00675700      -0.00098600       0.00787800 
      46      -3.97080528       0.00439094       7.93193621       0.00105100       0.00709500       0.00800500 
      46      -1.98761856       1.98699262       7.93192342       0.00087200      -0.00020000       0.00031900 
      46      -5.94358419      -0.00619391       5.94878942      -0.01571300       0.01807700      -0.00055400 
      46      -3.96039747       1.97640777       5.94877663       0.00257400       0.00037900      -0.00023500 
      46      -1.97721075       3.95900945       5.94876384       0.00223000       0.00059200       0.00076000 
      46      -3.96034956       1.97633483       9.91476492       0.00221000      -0.00052700      -0.00049700 
      46      -3.96044537       1.97648071       1.98278834       0.00270000      -0.00046900       0.00027700 
      46      -3.94765470       3.94659696       3.96577674      -0.00319900       0.00146100       0.00173400 
      46      -5.93079352       1.96392234       7.93177782      -0.00264500       0.00173600      -0.00075300 
      46      -3.94760680       3.94652402       7.93176503      -0.00200300       0.00177800      -0.00028900 
      46      -5.93074562       1.96384940      11.89776611      -0.00196500       0.00070500       0.00035300 
      46      -5.93084143       1.96399528       3.96578953      -0.00357200       0.00117800       0.00053500 
      47      -7.94402843       1.99384061       5.94884606      -0.01450800       0.01495600       0.00014700 
      47      -5.96084171       3.97644229       5.94883327      -0.00041800      -0.00010800      -0.00016400 
      47      -3.97765498       5.95904396       5.94882048       0.00014500      -0.00030700      -0.00022100 
      47      -5.96079380       3.97636935       9.91482156       0.00001600      -0.00025600       0.00000800 
      47      -5.96088961       3.97651523       1.98284498       0.00024200       0.00039800       0.00003200 
30
Lattice="-3.9663255393589556 -3.965276295893179 3.966013871340579 1.9832825246611212 1.98245579512638 7.931963794273521 -5.9631611809955585 5.961412860831066 -0.0001831300179231" Properties=Z:I:1:pos:R:3:vasp_force:R:3 uuid=f7b2006c-cf99-498a-9bb2-6a89e11256f9 vasp_virial="-0.08178489564308535 -0.014518530998545281 -0.02575056526027009 -0.014518530998545281 0.04737179223411661 0.0700260854128586 -0.02575056526027009 0.0700260854128586 -0.02108274487271119" vasp_energy=-144.18405948 pbc="T T T"
      46      -0.02771618       0.02757989       0.00007517       0.00093200      -0.00711400      -0.00753400 
      46      -2.01085500      -1.95509473       3.96607626       0.00754300       0.00012000      -0.00816600 
      46      -0.02766828       0.02750695       3.96606347       0.00049700      -0.00659600       0.00710400 
      46      -2.01080710      -1.95516767       7.93206455       0.00814300       0.00059800       0.00733700 
      46      -0.02762037       0.02743401       7.93205176       0.00190000       0.00018900       0.00024700 
      46      -3.97420977      -1.97460866       5.94910132      -0.06071100       0.05913500       0.00023600 
      46      -1.99809516       0.01506305       5.94908831      -0.00358100       0.00091700      -0.00007700 
      46      -0.01490844       1.99766472       5.94907552      -0.00328900       0.00041000       0.00015500 
      46      -1.99804726       0.01499011       9.91507660      -0.00264300       0.00013200      -0.00055900 
      46      -1.99814306       0.01513599       1.98310002      -0.00336000       0.00063000       0.00003500 
      46      -5.95403990      -1.97813779       3.96596071       0.00751600       0.00015000       0.00779300 
      46      -3.97085318       0.00446388       3.96594792      -0.00003200      -0.00787500       0.00752600 
      46      -1.98766646       1.98706556       3.96593513       0.00750500      -0.00020800      -0.00809000 
      46      -3.97080528       0.00439094       7.93193621      -0.00012600      -0.00761600      -0.00760300 
      46      -1.98761856       1.98699262       7.93192342       0.00132800      -0.00060800       0.00029200 
      46      -5.94358419      -0.00619391       5.94878942       0.01884800      -0.01660000      -0.00037900 
      46      -3.96039747       1.97640777       5.94877663       0.00142500       0.00041800       0.00016300 
      46      -1.97721075       3.95900945       5.94876384       0.00180800       0.00040800       0.00010100 
      46      -3.96034956       1.97633483       9.91476492       0.00250200      -0.00005900       0.00027400 
      46      -3.96044537       1.97648071       1.98278834       0.00278000       0.00068900      -0.00010000 
      46      -3.94765470       3.94659696       3.96577674      -0.00181700       0.00010200       0.00096400 
      46      -5.93079352       1.96392234       7.93177782      -0.00143900       0.00070200      -0.00071900 
      46      -3.94760680       3.94652402       7.93176503      -0.00175100       0.00147800      -0.00033500 
      46      -5.93074562       1.96384940      11.89776611      -0.00088200      -0.00040500       0.00025300 
      46      -5.93084143       1.96399528       3.96578953      -0.00221900      -0.00018300       0.00114000 
      47      -7.94402843       1.99384061       5.94884606       0.01677000      -0.01631200       0.00018500 
      47      -5.96084171       3.97644229       5.94883327       0.00078500      -0.00037600       0.00013600 
      47      -3.97765498       5.95904396       5.94882048       0.00044400      -0.00083800      -0.00025900 
      47      -5.96079380       3.97636935       9.91482156       0.00057000      -0.00053000       0.00011200 
      47      -5.96088961       3.97651523       1.98284498       0.00055500      -0.00075900      -0.00023300 
30
Lattice="-3.9663255393589556 -3.965276295893179 3.966013871340579 1.9832825246611212 1.98245579512638 7.931963794273521 -5.9631611809955585 5.961412860831066 -0.0001831300179231" Properties=Z:I:1:pos:R:3:vasp_force:R:3 uuid=4b11dbd6-3d25-4497-bdc5-466b9a5195e5 vasp_virial="-0.07311357789491167 -0.01947022510246357 -0.02669583547041525 -0.01947022510246357 0.054129157296733225 0.06939395425065625 -0.02669583547041525 0.06939395425065625 -0.020702295562126452" vasp_energy=-144.18412398 pbc="T T T"
      46      -0.02771618       0.02757989       0.00007517       0.00275500       0.00054500      -0.00125100 
      46      -2.01085500      -1.95509473       3.96607626       0.00062200      -0.00033700      -0.00119000 
      46      -0.02766828       0.02750695       3.96606347       0.00213800      -0.00002300      -0.00006000 
      46      -2.01080710      -1.95516767       7.93206455       0.00170700       0.00039000       0.00024800 
      46      -0.02762037       0.02743401       7.93205176       0.00231100      -0.00044600      -0.00024400 
      46      -3.98128188      -1.96753863       5.94910110      -0.00194600       0.00144400      -0.00049600 
      46      -1.99809516       0.01506305       5.94908831      -0.00286000      -0.00007700      -0.00077100 
      46      -0.01490844       1.99766472       5.94907552      -0.00260700       0.00043200      -0.00126600 
      46      -1.99804726       0.01499011       9.91507660      -0.01442800       0.00020400       0.01236200 
      46      -1.99814306       0.01513599       1.98310002      -0.00252800      -0.01315900       0.01266700 
      46      -1.99348852       1.98136587       0.00572055       0.04535200       0.04423000      -0.04364000 
      46      -3.97085318       0.00446388       3.96594792      -0.01243100      -0.01368800      -0.00027900 
      46      -1.98766646       1.98706556       3.96593513       0.00076000      -0.00023900       0.00031400 
      46      -3.97080528       0.00439094       7.93193621       0.00078200       0.00003000       0.00063800 
      46      -1.98761856       1.98699262       7.93192342      -0.01211000      -0.01367900       0.00028700 
      46      -5.94358419      -0.00619391       5.94878942       0.00256800       0.00087500      -0.00135500 
      46      -3.96039747       1.97640777       5.94877663       0.00169600       0.00012000      -0.00082700 
      46      -1.97721075       3.95900945       5.94876384       0.00260100       0.00109500      -0.00048500 
      46      -3.96034956       1.97633483       9.91476492       0.00240900      -0.01261100       0.01222200 
      46      -3.96044537       1.97648071       1.98278834      -0.00997600       0.00030300       0.01286200 
      46      -3.94765470       3.94659696       3.96577674      -0.00230700       0.00145200       0.00163300 
      46      -5.93079352       1.96392234       7.93177782      -0.00135900       0.00143100      -0.00042500 
      46      -3.94760680       3.94652402       7.93176503      -0.00242000       0.00205200      -0.00075700 
      46      -5.93074562       1.96384940      11.89776611      -0.00040000       0.00113300      -0.00076900 
      46      -5.93084143       1.96399528       3.96578953      -0.00249200      -0.00007500       0.00034800 
      47      -7.94402843       1.99384061       5.94884606       0.00069500      -0.00032700       0.00014300 
      47      -5.96084171       3.97644229       5.94883327       0.00040900       0.00000700       0.00018000 
      47      -3.97765498       5.95904396       5.94882048       0.00022900      -0.00059700      -0.00026900 
      47      -5.96079380       3.97636935       9.91482156       0.00035900      -0.00035300       0.00016900 
      47      -5.96088961       3.97651523       1.98284498       0.00047000      -0.00013200       0.00000900 
30
Lattice="-3.9663255393589556 -3.965276295893179 3.966013871340579 1.9832825246611212 1.98245579512638 7.931963794273521 -5.9631611809955585 5.961412860831066 -0.0001831300179231" Properties=Z:I:1:pos:R:3:vasp_force:R:3 uuid=b4b2b5fc-667a-4284-b77b-ac4ac277e359 vasp_virial="-0.07323063922124542 -0.01944973937035516 -0.027143595043641906 -0.01944973937035516 0.05445692901046777 0.06983586075756623 -0.027143595043641906 0.06983586075756623 -0.020599866901584406" vasp_energy=-144.18412398 pbc="T T T"
      46      -0.02771618       0.02757989       0.00007517       0.00074600      -0.00142900       0.00090600 
      46      -2.01085500      -1.95509473       3.96607626       0.00172500      -0.00121300      -0.00027800 
      46      -0.02766828       0.02750695       3.96606347       0.00076100      -0.00044400      -0.00068300 
      46      -2.01080710      -1.95516767       7.93206455       0.00131900      -0.00093500      -0.00035000 
      46      -0.02762037       0.02743401       7.93205176       0.00155200       0.00068100       0.00073100 
      46      -3.98128188      -1.96753863       5.94910110      -0.00309700       0.00026700       0.00134600 
      46      -1.99809516       0.01506305       5.94908831      -0.00224200       0.00049700       0.00080300 
      46      -0.01490844       1.99766472       5.94907552      -0.00386100      -0.00058200       0.00051200 
      46      -1.99804726       0.01499011       9.91507660       0.01058800      -0.00009700      -0.01275200 
      46      -1.99814306       0.01513599       1.98310002      -0.00271500       0.01191200      -0.01243100 
      46      -5.94826574      -1.97236516       3.96018700      -0.04405900      -0.04549100       0.04363900 
      46      -3.97085318       0.00446388       3.96594792       0.01355600       0.01243000      -0.00033000 
      46      -1.98766646       1.98706556       3.96593513       0.00009300      -0.00091300      -0.00072200 
      46      -3.97080528       0.00439094       7.93193621       0.00011400      -0.00064400      -0.00039900 
      46      -1.98761856       1.98699262       7.93192342       0.01387800       0.01244100       0.00023400 
      46      -5.94358419      -0.00619391       5.94878942       0.00131100      -0.00013800       0.00042100 
      46      -3.96039747       1.97640777       5.94877663       0.00231400       0.00070000       0.00074700 
      46      -1.97721075       3.95900945       5.94876384       0.00145200      -0.00008200       0.00135700 
      46      -3.96034956       1.97633483       9.91476492       0.00222000       0.01245500      -0.01287400 
      46      -3.96044537       1.97648071       1.98278834       0.01503300       0.00000200      -0.01224900 
      46      -3.94765470       3.94659696       3.96577674      -0.00269400       0.00012500       0.00103900 
      46      -5.93079352       1.96392234       7.93177782      -0.00273400       0.00100600      -0.00104800 
      46      -3.94760680       3.94652402       7.93176503      -0.00131800       0.00117800       0.00015500 
      46      -5.93074562       1.96384940      11.89776611      -0.00240900      -0.00083900       0.00138500 
      46      -5.93084143       1.96399528       3.96578953      -0.00325400       0.00105400       0.00132200 
      47      -7.94402843       1.99384061       5.94884606       0.00083200      -0.00027300       0.00019200 
      47      -5.96084171       3.97644229       5.94883327      -0.00003900      -0.00048300      -0.00020800 
      47      -3.97765498       5.95904396       5.94882048       0.00036600      -0.00054000      -0.00021700 
      47      -5.96079380       3.97636935       9.91482156       0.00022400      -0.00043200      -0.00004400 
      47      -5.96088961       3.97651523       1.98284498       0.00033600      -0.00021200      -0.00020600 
30
Lattice="-3.9663255393589556 -3.965276295893179 3.966013871340579 1.9832825246611212 1.98245579512638 7.931963794273521 -5.9631611809955585 5.961412860831066 -0.0001831300179231" Properties=Z:I:1:pos:R:3:vasp_force:R:3 uuid=3e24af66-3cd1-45c6-bfbc-4912594d0e62 vasp_virial="-0.0738920357150312 -0.020090650132032525 -0.026242222830871912 -0.020090650132032525 0.053848210113532184 0.07001437928022522 -0.026242222830871912 0.07001437928022522 -0.02077253235792671" vasp_energy=-144.18413038 pbc="T T T"
      46      -0.02771618       0.02757989       0.00007517       0.00127000      -0.00088300      -0.00193000 
      46      -2.01085500      -1.95509473       3.96607626       0.00122000      -0.00040600      -0.00107800 
      46      -0.02766828       0.02750695       3.96606347       0.00190700      -0.00136700      -0.00023900 
      46      -2.01080710      -1.95516767       7.93206455       0.00045500       0.00019900       0.00005000 
      46      -0.02762037       0.02743401       7.93205176       0.00238900       0.00009300      -0.00021000 
      46      -3.98128188      -1.96753863       5.94910110       0.01061800       0.00057200       0.01257300 
      46      -1.99809516       0.01506305       5.94908831      -0.00158600       0.00116600       0.00016400 
      46      -0.01490844       1.99766472       5.94907552      -0.00338900       0.01254000       0.01147300 
      46      -1.99804726       0.01499011       9.91507660      -0.01053300      -0.00027600       0.00631000 
      46      -1.99814306       0.01513599       1.98310002      -0.00302800      -0.00902900       0.00625300 
      46      -5.95168251      -1.97578139       3.97538886      -0.01840600      -0.01874400      -0.07163000 
      46      -3.97085318       0.00446388       3.96594792       0.00533300       0.00407900      -0.00108800 
      46      -1.98766646       1.98706556       3.96593513       0.00074700      -0.00028600       0.00150300 
      46      -3.97080528       0.00439094       7.93193621       0.00075900      -0.00003000       0.00183500 
      46      -1.98761856       1.98699262       7.93192342       0.00605800       0.00449100      -0.00039700 
      46      -5.94358419      -0.00619391       5.94878942       0.00175300       0.01348600       0.01182700 
      46      -3.96039747       1.97640777       5.94877663       0.00297600       0.00135900       0.00010900 
      46      -1.97721075       3.95900945       5.94876384       0.01465300       0.00026000       0.01213600 
      46      -3.96034956       1.97633483       9.91476492       0.00202000      -0.00870200       0.00610100 
      46      -3.96044537       1.97648071       1.98278834      -0.00586800      -0.00029100       0.00651800 
      46      -3.94765470       3.94659696       3.96577674      -0.00354300       0.00124800       0.00147500 
      46      -5.93079352       1.96392234       7.93177782      -0.00157300       0.00006800      -0.00064100 
      46      -3.94760680       3.94652402       7.93176503      -0.00183200       0.00201800      -0.00067000 
      46      -5.93074562       1.96384940      11.89776611      -0.00185600      -0.00032400      -0.00144900 
      46      -5.93084143       1.96399528       3.96578953      -0.00244600       0.00047100       0.00041000 
      47      -7.94402843       1.99384061       5.94884606       0.00059200      -0.00047900       0.00019900 
      47      -5.96084171       3.97644229       5.94883327       0.00026800      -0.00014500       0.00014400 
      47      -3.97765498       5.95904396       5.94882048       0.00013200      -0.00074800      -0.00020400 
      47      -5.96079380       3.97636935       9.91482156       0.00040200      -0.00027800       0.00030800 
      47      -5.96088961       3.97651523       1.98284498       0.00050700      -0.00006300       0.00014900 
30
Lattice="-3.9663255393589556 -3.965276295893179 3.966013871340579 1.9832825246611212 1.98245579512638 7.931963794273521 -5.9631611809955585 5.961412860831066 -0.0001831300179231" Properties=Z:I:1:pos:R:3:vasp_force:R:3 uuid=cc82c482-bac4-489d-a809-5a169216a6bc vasp_virial="-0.07373985599079733 -0.020163813460991126 -0.026447080151956 -0.020163813460991126 0.05360238132823127 0.07030117952974295 -0.026447080151956 0.07030117952974295 -0.020810577288985183" vasp_energy=-144.1841308 pbc="T T T"
      46      -0.02771618       0.02757989       0.00007517       0.00223400       0.00000100       0.00158700 
      46      -2.01085500      -1.95509473       3.96607626       0.00116700      -0.00120200      -0.00036300 
      46      -0.02766828       0.02750695       3.96606347       0.00101000       0.00088800      -0.00046400 
      46      -2.01080710      -1.95516767       7.93206455       0.00258700      -0.00075800      -0.00018800 
      46      -0.02762037       0.02743401       7.93205176       0.00153400       0.00011200       0.00067000 
      46      -3.98128188      -1.96753863       5.94910110      -0.01512400       0.00108100      -0.01127600 
      46      -1.99809516       0.01506305       5.94908831      -0.00349300      -0.00076500      -0.00013100 
      46      -0.01490844       1.99766472       5.94907552      -0.00302000      -0.01321500      -0.01267000 
      46      -1.99804726       0.01499011       9.91507660       0.00650800       0.00047500      -0.00640500 
      46      -1.99814306       0.01513599       1.98310002      -0.00230200       0.00798000      -0.00630600 
      46      -3.97311476       0.00196160      11.88849635       0.01888600       0.01814000       0.07157400 
      46      -3.97085318       0.00446388       3.96594792      -0.00458300      -0.00576000       0.00035400 
      46      -1.98766646       1.98706556       3.96593513       0.00014200      -0.00087400      -0.00191800 
      46      -3.97080528       0.00439094       7.93193621       0.00015200      -0.00061900      -0.00158400 
      46      -1.98761856       1.98699262       7.93192342      -0.00385800      -0.00534700       0.00104300 
      46      -5.94358419      -0.00619391       5.94878942       0.00211800      -0.01226200      -0.01231400 
      46      -3.96039747       1.97640777       5.94877663       0.00106600      -0.00056400      -0.00018700 
      46      -1.97721075       3.95900945       5.94876384      -0.01108500       0.00076700      -0.01170800 
      46      -3.96034956       1.97633483       9.91476492       0.00274200       0.00830900      -0.00645700 
      46      -3.96044537       1.97648071       1.98278834       0.01116300       0.00046300      -0.00619400 
      46      -3.94765470       3.94659696       3.96577674      -0.00141200       0.00029300       0.00123800 