  30
   1   1
     5.528159591644056    -0.225590035615347    -0.118303157412475
    -0.202826079950185     5.515376711554146     0.166674305507059
    -0.123880311355822     0.166504427442709     6.287910598475464
   1   2
    -0.562074191542431    -0.540656852647566    -0.003777918791874
    -0.541469092419262    -0.549569435111418     0.001129236739728
    -0.003558299060942     0.001173552532925    -0.058048510322672
   1   3
     0.001258408903846    -0.060480858759220     0.005974954444818
    -0.061298784979360    -0.014835139599012     0.006409167859591
     0.006160630789733     0.006403542826663     0.025501838795237
   1   4
     0.001277580116122    -0.060482463092180     0.005971578119324
    -0.061262843862389    -0.014801147324157     0.006408678484136
     0.006154568110198     0.006390826899565     0.025503143071637
   1   5
    -0.562128908692760    -0.540631885597918    -0.003772304156357
    -0.541502935797698    -0.549552514463511     0.001161229543244
    -0.003553106601784     0.001163036955628    -0.058040010740971
   1   6
     0.103085358502705    -0.009680188721467    -0.007993560928773
    -0.011552028738885    -0.836519389343699    -0.921580684678782
    -0.014048798280843    -0.911446820539960    -0.804886698042952
   1   7
    -0.012328525452691     0.010325801421212     0.009912213951798
     0.010347474448042    -0.013748451201892     0.000393161189534
     0.012118050911264     0.002314583859444    -0.008104731681857
   1   8
    -0.028779792078486     0.015387895159616    -0.039106263682048
     0.020466052512643    -0.029003265048268    -0.018328574601944
    -0.040091003085807    -0.004610926379809    -0.021612952715688
   1   9
     0.013365820769277     0.005499249690321     0.016843232726408
    -0.010171109488396     0.017289742133503    -0.000157127750278
     0.015480272189023    -0.002665280195198    -0.033458698445251
   1  10
    -0.852935898970713    -0.014710535880576     0.913487497439009
    -0.006709859880035     0.062120730377150     0.023818558955677
     0.895720940572289     0.025459615106859    -0.815176823255590
   1  11
     0.098520605517850    -0.013116649807453    -0.000813374228005
    -0.016459376373062    -0.753694960447806     0.830538158715064
     0.008672231583212     0.830215730168732    -0.722635473887967
   1  12
    -0.024074837038533     0.017301378003816     0.016151317285126
     0.017510925666719    -0.026869123081817    -0.025150585988424
     0.009379494440313    -0.022735068543475    -0.036316666853499
   1  13
    -0.020295473856924     0.015031034251653     0.024321972294265
     0.025686268453546     0.005680659887958    -0.003178649010169
     0.028770132115565    -0.005864190484257     0.010126799520162
   1  14
     0.000994018721592     0.004865908934179    -0.031147330576234
    -0.005777810954523    -0.010560704338499     0.030309868728721
    -0.024284114789819     0.017890850845702    -0.024910987819748
   1  15
    -0.782505015141834    -0.007421335280146    -0.840243370935354
    -0.008136554394986     0.080286097534932    -0.011774269965256
    -0.837513879598307    -0.014788550528879    -0.747016214120831
   1  16
    -0.641099054859954     0.686919728939854    -0.003179625696457
     0.683270166540529    -0.628160049035200     0.006203162764501
     0.002975231071492     0.000580595768608     0.058640772888947
   1  17
     0.007367520304295    -0.009076511209818     0.008283298119367
     0.007943979736835    -0.103925458000979     0.007664443267444
     0.000904485579781     0.002910700410991     0.017938075652143
   1  18
    -0.640911262284675     0.686724156088212    -0.003142412698340
     0.683061147103194    -0.628006011542150     0.006162044116325
     0.002977535935899     0.000574903029520     0.058625007831255
   1  19
    -0.060818029622271     0.007971296786834    -0.005067772082605
     0.001618316979019    -0.009404189690472    -0.006367805098877
     0.002224254353669    -0.007269764924635     0.023395912252328
   1  20
    -0.060822688157098     0.007965719273933    -0.005064770183739
     0.001625826909065    -0.009428159766070    -0.006380816425789
     0.002221136501115    -0.007254737164894     0.023392871575662
   1  21
    -0.024071950833882     0.017322868958940     0.016148266344175
     0.017536910027019    -0.026863662383219    -0.025116582732190
     0.009371497897655    -0.022714146673388    -0.036322189521490
   1  22
     0.098457779355892    -0.013100580463927    -0.000801798126099
    -0.016420751371024    -0.753064915902444     0.829459764503013
     0.008621259435595     0.829272819061216    -0.721456289321468
   1  23
    -0.782989754934299    -0.007246803784485    -0.840663711448930
    -0.007976679450065     0.080336813500874    -0.011588400463708
    -0.837998931999443    -0.014582403161865    -0.747322686791515
   1  24
     0.000989244503724     0.004852758521854    -0.031143254790444
    -0.005793796494429    -0.010581174299717     0.030336857616443
    -0.024282783779980     0.017884307113414    -0.024910911583989
   1  25
    -0.020289910822658     0.015030328924516     0.024341871933631
     0.025721755228917     0.005674180526229    -0.003076193157431
     0.028772246982575    -0.005844880154071     0.010137733802997
   1  26
    -0.852475918117922    -0.014546318635227     0.913125907813946
    -0.006557601860317     0.062078103431622     0.023660846277108
     0.895238900171286     0.025282749414730    -0.814882398847157
   1  27
     0.013350406466848     0.005482118865354     0.016846062046387
    -0.010183052909691     0.017261803052942    -0.000173113511008
     0.015494602218632    -0.002651311754767    -0.033435833698476
   1  28
    -0.028778544713963     0.015378661509709    -0.039107825505932
     0.020500549291345    -0.029029737990883    -0.018374054301333
    -0.040090911293102    -0.004609310456757    -0.021596268541441
   1  29
    -0.012324126946622     0.010359746088203     0.009914055412582
     0.010372455885429    -0.013756566470808     0.000367137579487
     0.012111370451950     0.002292805377275    -0.008123712702536
   1  30
     0.102875768540908    -0.009676791364548    -0.007994414765521
    -0.011562965926463    -0.834731290121052    -0.919450261762487
    -0.014067742586520    -0.909278513078069    -0.802914042612431
   2   1
    -0.562128908692760    -0.540631885597918    -0.003772304156357
    -0.541502935797698    -0.549552514463511     0.001161229543244
    -0.003553106601784     0.001163036955628    -0.058040010740971
   2   2
     5.528159591644056    -0.225590035615347    -0.118303157412475
    -0.202826079950185     5.515376711554146     0.166674305507059
    -0.123880311355822     0.166504427442709     6.287910598475464
   2   3
    -0.562074191542431    -0.540656852647566    -0.003777918791874
    -0.541469092419262    -0.549569435111418     0.001129236739728
    -0.003558299060942     0.001173552532925    -0.058048510322672
   2   4
     0.001258408903846    -0.060480858759220     0.005974954444818
    -0.061298784979360    -0.014835139599012     0.006409167859591
     0.006160630789733     0.006403542826663     0.025501838795237
   2   5
     0.001277580116122    -0.060482463092180     0.005971578119324
    -0.061262843862389    -0.014801147324157     0.006408678484136
     0.006154568110198     0.006390826899565     0.025503143071637
   2   6
    -0.852935898970713    -0.014710535880576     0.913487497439009
    -0.006709859880035     0.062120730377150     0.023818558955677
     0.895720940572289     0.025459615106859    -0.815176823255590
   2   7
     0.103085358502705    -0.009680188721467    -0.007993560928773
    -0.011552028738885    -0.836519389343699    -0.921580684678782
    -0.014048798280843    -0.911446820539960    -0.804886698042952
   2   8
    -0.012328525452691     0.010325801421212     0.009912213951798
     0.010347474448042    -0.013748451201892     0.000393161189534
     0.012118050911264     0.002314583859444    -0.008104731681857
   2   9
    -0.028779792078486     0.015387895159616    -0.039106263682048
     0.020466052512643    -0.029003265048268    -0.018328574601944
    -0.040091003085807    -0.004610926379809    -0.021612952715688
   2  10
     0.013365820769277     0.005499249690321     0.016843232726408
    -0.010171109488396     0.017289742133503    -0.000157127750278
     0.015480272189023    -0.002665280195198    -0.033458698445251
   2  11
    -0.782505015141834    -0.007421335280146    -0.840243370935354
    -0.008136554394986     0.080286097534932    -0.011774269965256
    -0.837513879598307    -0.014788550528879    -0.747016214120831
   2  12
     0.098520605517850    -0.013116649807453    -0.000813374228005
    -0.016459376373062    -0.753694960447806     0.830538158715064
     0.008672231583212     0.830215730168732    -0.722635473887967
   2  13
    -0.024074837038533     0.017301378003816     0.016151317285126
     0.017510925666719    -0.026869123081817    -0.025150585988424
     0.009379494440313    -0.022735068543475    -0.036316666853499
   2  14
    -0.020295473856924     0.015031034251653     0.024321972294265
     0.025686268453546     0.005680659887958    -0.003178649010169
     0.028770132115565    -0.005864190484257     0.010126799520162
   2  15
     0.000994018721592     0.004865908934179    -0.031147330576234
    -0.005777810954523    -0.010560704338499     0.030309868728721
    -0.024284114789819     0.017890850845702    -0.024910987819748
   2  16
    -0.060822688157098     0.007965719273933    -0.005064770183739
     0.001625826909065    -0.009428159766070    -0.006380816425789
     0.002221136501115    -0.007254737164894     0.023392871575662
   2  17
    -0.641099054859954     0.686919728939854    -0.003179625696457
     0.683270166540529    -0.628160049035200     0.006203162764501
     0.002975231071492     0.000580595768608     0.058640772888947
   2  18
     0.007367520304295    -0.009076511209818     0.008283298119367
     0.007943979736835    -0.103925458000979     0.007664443267444
     0.000904485579781     0.002910700410991     0.017938075652143
   2  19
    -0.640911262284675     0.686724156088212    -0.003142412698340
     0.683061147103194    -0.628006011542150     0.006162044116325
     0.002977535935899     0.000574903029520     0.058625007831255
   2  20
    -0.060818029622271     0.007971296786834    -0.005067772082605
     0.001618316979019    -0.009404189690472    -0.006367805098877
     0.002224254353669    -0.007269764924635     0.023395912252328
   2  21
    -0.020289910822658     0.015030328924516     0.024341871933631
     0.025721755228917     0.005674180526229    -0.003076193157431
     0.028772246982575    -0.005844880154071     0.010137733802997
   2  22
    -0.024071950833882     0.017322868958940     0.016148266344175
     0.017536910027019    -0.026863662383219    -0.025116582732190
     0.009371497897655    -0.022714146673388    -0.036322189521490
   2  23
     0.098457779355892    -0.013100580463927    -0.000801798126099
    -0.016420751371024    -0.753064915902444     0.829459764503013
     0.008621259435595     0.829272819061216    -0.721456289321468
   2  24
    -0.782989754934299    -0.007246803784485    -0.840663711448930
    -0.007976679450065     0.080336813500874    -0.011588400463708
    -0.837998931999443    -0.014582403161865    -0.747322686791515
   2  25
     0.000989244503724     0.004852758521854    -0.031143254790444
    -0.005793796494429    -0.010581174299717     0.030336857616443
    -0.024282783779980     0.017884307113414    -0.024910911583989
   2  26
     0.102875768540908    -0.009676791364548    -0.007994414765521
    -0.011562965926463    -0.834731290121052    -0.919450261762487
    -0.014067742586520    -0.909278513078069    -0.802914042612431
   2  27
    -0.852475918117922    -0.014546318635227     0.913125907813946
    -0.006557601860317     0.062078103431622     0.023660846277108
     0.895238900171286     0.025282749414730    -0.814882398847157
   2  28
     0.013350406466848     0.005482118865354     0.016846062046387
    -0.010183052909691     0.017261803052942    -0.000173113511008
     0.015494602218632    -0.002651311754767    -0.033435833698476
   2  29
    -0.028778544713963     0.015378661509709    -0.039107825505932
     0.020500549291345    -0.029029737990883    -0.018374054301333
    -0.040090911293102    -0.004609310456757    -0.021596268541441
   2  30
    -0.012324126946622     0.010359746088203     0.009914055412582
     0.010372455885429    -0.013756566470808     0.000367137579487
     0.012111370451950     0.002292805377275    -0.008123712702536
   3   1
     0.001277580116122    -0.060482463092180     0.005971578119324
    -0.061262843862389    -0.014801147324157     0.006408678484136
     0.006154568110198     0.006390826899565     0.025503143071637
   3   2
    -0.562128908692760    -0.540631885597918    -0.003772304156357
    -0.541502935797698    -0.549552514463511     0.001161229543244
    -0.003553106601784     0.001163036955628    -0.058040010740971
   3   3
     5.528159591644056    -0.225590035615347    -0.118303157412475
    -0.202826079950185     5.515376711554146     0.166674305507059
    -0.123880311355822     0.166504427442709     6.287910598475464
   3   4
    -0.562074191542431    -0.540656852647566    -0.003777918791874
    -0.541469092419262    -0.549569435111418     0.001129236739728
    -0.003558299060942     0.001173552532925    -0.058048510322672
   3   5
     0.001258408903846    -0.060480858759220     0.005974954444818
    -0.061298784979360    -0.014835139599012     0.006409167859591
     0.006160630789733     0.006403542826663     0.025501838795237
   3   6
     0.013365820769277     0.005499249690321     0.016843232726408
    -0.010171109488396     0.017289742133503    -0.000157127750278
     0.015480272189023    -0.002665280195198    -0.033458698445251
   3   7
    -0.852935898970713    -0.014710535880576     0.913487497439009
    -0.006709859880035     0.062120730377150     0.023818558955677
     0.895720940572289     0.025459615106859    -0.815176823255590
   3   8
     0.103085358502705    -0.009680188721467    -0.007993560928773
    -0.011552028738885    -0.836519389343699    -0.921580684678782
    -0.014048798280843    -0.911446820539960    -0.804886698042952
   3   9
    -0.012328525452691     0.010325801421212     0.009912213951798
     0.010347474448042    -0.013748451201892     0.000393161189534
     0.012118050911264     0.002314583859444    -0.008104731681857
   3  10
    -0.028779792078486     0.015387895159616    -0.039106263682048
     0.020466052512643    -0.029003265048268    -0.018328574601944
    -0.040091003085807    -0.004610926379809    -0.021612952715688
   3  11
     0.000994018721592     0.004865908934179    -0.031147330576234
    -0.005777810954523    -0.010560704338499     0.030309868728721
    -0.024284114789819     0.017890850845702    -0.024910987819748
   3  12
    -0.782505015141834    -0.007421335280146    -0.840243370935354
    -0.008136554394986     0.080286097534932    -0.011774269965256
    -0.837513879598307    -0.014788550528879    -0.747016214120831
   3  13
     0.098520605517850    -0.013116649807453    -0.000813374228005
    -0.016459376373062    -0.753694960447806     0.830538158715064
     0.008672231583212     0.830215730168732    -0.722635473887967
   3  14
    -0.024074837038533     0.017301378003816     0.016151317285126
     0.017510925666719    -0.026869123081817    -0.025150585988424
     0.009379494440313    -0.022735068543475    -0.036316666853499
   3  15
    -0.020295473856924     0.015031034251653     0.024321972294265
     0.025686268453546     0.005680659887958    -0.003178649010169
     0.028770132115565    -0.005864190484257     0.010126799520162
   3  16
    -0.060818029622271     0.007971296786834    -0.005067772082605
     0.001618316979019    -0.009404189690472    -0.006367805098877
     0.002224254353669    -0.007269764924635     0.023395912252328
   3  17
    -0.060822688157098     0.007965719273933    -0.005064770183739
     0.001625826909065    -0.009428159766070    -0.006380816425789
     0.002221136501115    -0.007254737164894     0.023392871575662
   3  18
    -0.641099054859954     0.686919728939854    -0.003179625696457
     0.683270166540529    -0.628160049035200     0.006203162764501
     0.002975231071492     0.000580595768608     0.058640772888947
   3  19
     0.007367520304295    -0.009076511209818     0.008283298119367
     0.007943979736835    -0.103925458000979     0.007664443267444
     0.000904485579781     0.002910700410991     0.017938075652143
   3  20
    -0.640911262284675     0.686724156088212    -0.003142412698340
     0.683061147103194    -0.628006011542150     0.006162044116325
     0.002977535935899     0.000574903029520     0.058625007831255
   3  21
     0.000989244503724     0.004852758521854    -0.031143254790444
    -0.005793796494429    -0.010581174299717     0.030336857616443
    -0.024282783779980     0.017884307113414    -0.024910911583989
   3  22
    -0.020289910822658     0.015030328924516     0.024341871933631
     0.025721755228917     0.005674180526229    -0.003076193157431
     0.028772246982575    -0.005844880154071     0.010137733802997
   3  23
    -0.024071950833882     0.017322868958940     0.016148266344175
     0.017536910027019    -0.026863662383219    -0.025116582732190
     0.009371497897655    -0.022714146673388    -0.036322189521490
   3  24
     0.098457779355892    -0.013100580463927    -0.000801798126099
    -0.016420751371024    -0.753064915902444     0.829459764503013
     0.008621259435595     0.829272819061216    -0.721456289321468
   3  25
    -0.782989754934299    -0.007246803784485    -0.840663711448930
    -0.007976679450065     0.080336813500874    -0.011588400463708
    -0.837998931999443    -0.014582403161865    -0.747322686791515
   3  26
    -0.012324126946622     0.010359746088203     0.009914055412582
     0.010372455885429    -0.013756566470808     0.000367137579487
     0.012111370451950     0.002292805377275    -0.008123712702536
   3  27
     0.102875768540908    -0.009676791364548    -0.007994414765521
    -0.011562965926463    -0.834731290121052    -0.919450261762487
    -0.014067742586520    -0.909278513078069    -0.802914042612431
   3  28
    -0.852475918117922    -0.014546318635227     0.913125907813946
    -0.006557601860317     0.062078103431622     0.023660846277108
     0.895238900171286     0.025282749414730    -0.814882398847157
   3  29
     0.013350406466848     0.005482118865354     0.016846062046387
    -0.010183052909691     0.017261803052942    -0.000173113511008
     0.015494602218632    -0.002651311754767    -0.033435833698476
   3  30
    -0.028778544713963     0.015378661509709    -0.039107825505932
     0.020500549291345    -0.029029737990883    -0.018374054301333
    -0.040090911293102    -0.004609310456757    -0.021596268541441
   4   1
     0.001258408903846    -0.060480858759220     0.005974954444818
    -0.061298784979360    -0.014835139599012     0.006409167859591
     0.006160630789733     0.006403542826663     0.025501838795237
   4   2
     0.001277580116122    -0.060482463092180     0.005971578119324
    -0.061262843862389    -0.014801147324157     0.006408678484136
     0.006154568110198     0.006390826899565     0.025503143071637
   4   3
    -0.562128908692760    -0.540631885597918    -0.003772304156357
    -0.541502935797698    -0.549552514463511     0.001161229543244
    -0.003553106601784     0.001163036955628    -0.058040010740971
   4   4
     5.528159591644056    -0.225590035615347    -0.118303157412475
    -0.202826079950185     5.515376711554146     0.166674305507059
    -0.123880311355822     0.166504427442709     6.287910598475464
   4   5
    -0.562074191542431    -0.540656852647566    -0.003777918791874
    -0.541469092419262    -0.549569435111418     0.001129236739728
    -0.003558299060942     0.001173552532925    -0.058048510322672
   4   6
    -0.028779792078486     0.015387895159616    -0.039106263682048
     0.020466052512643    -0.029003265048268    -0.018328574601944
    -0.040091003085807    -0.004610926379809    -0.021612952715688
   4   7
     0.013365820769277     0.005499249690321     0.016843232726408
    -0.010171109488396     0.017289742133503    -0.000157127750278
     0.015480272189023    -0.002665280195198    -0.033458698445251
   4   8
    -0.852935898970713    -0.014710535880576     0.913487497439009
    -0.006709859880035     0.062120730377150     0.023818558955677
     0.895720940572289     0.025459615106859    -0.815176823255590
   4   9
     0.103085358502705    -0.009680188721467    -0.007993560928773
    -0.011552028738885    -0.836519389343699    -0.921580684678782
    -0.014048798280843    -0.911446820539960    -0.804886698042952
   4  10
    -0.012328525452691     0.010325801421212     0.009912213951798
     0.010347474448042    -0.013748451201892     0.000393161189534
     0.012118050911264     0.002314583859444    -0.008104731681857
   4  11
    -0.020295473856924     0.015031034251653     0.024321972294265
     0.025686268453546     0.005680659887958    -0.003178649010169
     0.028770132115565    -0.005864190484257     0.010126799520162
   4  12
     0.000994018721592     0.004865908934179    -0.031147330576234
    -0.005777810954523    -0.010560704338499     0.030309868728721
    -0.024284114789819     0.017890850845702    -0.024910987819748
   4  13
    -0.782505015141834    -0.007421335280146    -0.840243370935354
    -0.008136554394986     0.080286097534932    -0.011774269965256
    -0.837513879598307    -0.014788550528879    -0.747016214120831
   4  14
     0.098520605517850    -0.013116649807453    -0.000813374228005
    -0.016459376373062    -0.753694960447806     0.830538158715064
     0.008672231583212     0.830215730168732    -0.722635473887967
   4  15
    -0.024074837038533     0.017301378003816     0.016151317285126
     0.017510925666719    -0.026869123081817    -0.025150585988424
     0.009379494440313    -0.022735068543475    -0.036316666853499
   4  16
    -0.640911262284675     0.686724156088212    -0.003142412698340
     0.683061147103194    -0.628006011542150     0.006162044116325
     0.002977535935899     0.000574903029520     0.058625007831255
   4  17
    -0.060818029622271     0.007971296786834    -0.005067772082605
     0.001618316979019    -0.009404189690472    -0.006367805098877
     0.002224254353669    -0.007269764924635     0.023395912252328
   4  18
    -0.060822688157098     0.007965719273933    -0.005064770183739
     0.001625826909065    -0.009428159766070    -0.006380816425789
     0.002221136501115    -0.007254737164894     0.023392871575662
   4  19
    -0.641099054859954     0.686919728939854    -0.003179625696457
     0.683270166540529    -0.628160049035200     0.006203162764501
     0.002975231071492     0.000580595768608     0.058640772888947
   4  20
     0.007367520304295    -0.009076511209818     0.008283298119367
     0.007943979736835    -0.103925458000979     0.007664443267444
     0.000904485579781     0.002910700410991     0.017938075652143
   4  21
    -0.782989754934299    -0.007246803784485    -0.840663711448930
    -0.007976679450065     0.080336813500874    -0.011588400463708
    -0.837998931999443    -0.014582403161865    -0.747322686791515
   4  22
     0.000989244503724     0.004852758521854    -0.031143254790444
    -0.005793796494429    -0.010581174299717     0.030336857616443
    -0.024282783779980     0.017884307113414    -0.024910911583989
   4  23
    -0.020289910822658     0.015030328924516     0.024341871933631
     0.025721755228917     0.005674180526229    -0.003076193157431
     0.028772246982575    -0.005844880154071     0.010137733802997
   4  24
    -0.024071950833882     0.017322868958940     0.016148266344175
     0.017536910027019    -0.026863662383219    -0.025116582732190
     0.009371497897655    -0.022714146673388    -0.036322189521490
   4  25
     0.098457779355892    -0.013100580463927    -0.000801798126099
    -0.016420751371024    -0.753064915902444     0.829459764503013
     0.008621259435595     0.829272819061216    -0.721456289321468
   4  26
    -0.028778544713963     0.015378661509709    -0.039107825505932
     0.020500549291345    -0.029029737990883    -0.018374054301333
    -0.040090911293102    -0.004609310456757    -0.021596268541441
   4  27
    -0.012324126946622     0.010359746088203     0.009914055412582
     0.010372455885429    -0.013756566470808     0.000367137579487
     0.012111370451950     0.002292805377275    -0.008123712702536
   4  28
     0.102875768540908    -0.009676791364548    -0.007994414765521
    -0.011562965926463    -0.834731290121052    -0.919450261762487
    -0.014067742586520    -0.909278513078069    -0.802914042612431
   4  29
    -0.852475918117922    -0.014546318635227     0.913125907813946
    -0.006557601860317     0.062078103431622     0.023660846277108
     0.895238900171286     0.025282749414730    -0.814882398847157
   4  30
     0.013350406466848     0.005482118865354     0.016846062046387
    -0.010183052909691     0.017261803052942    -0.000173113511008
     0.015494602218632    -0.002651311754767    -0.033435833698476
   5   1
    -0.562074191542431    -0.540656852647566    -0.003777918791874
    -0.541469092419262    -0.549569435111418     0.001129236739728
    -0.003558299060942     0.001173552532925    -0.058048510322672
   5   2
     0.001258408903846    -0.060480858759220     0.005974954444818
    -0.061298784979360    -0.014835139599012     0.006409167859591
     0.006160630789733     0.006403542826663     0.025501838795237
   5   3
     0.001277580116122    -0.060482463092180     0.005971578119324
    -0.061262843862389    -0.014801147324157     0.006408678484136
     0.006154568110198     0.006390826899565     0.025503143071637
   5   4
    -0.562128908692760    -0.540631885597918    -0.003772304156357
    -0.541502935797698    -0.549552514463511     0.001161229543244
    -0.003553106601784     0.001163036955628    -0.058040010740971
   5   5
     5.528159591644056    -0.225590035615347    -0.118303157412475
    -0.202826079950185     5.515376711554146     0.166674305507059
    -0.123880311355822     0.166504427442709     6.287910598475464
   5   6
    -0.012328525452691     0.010325801421212     0.009912213951798
     0.010347474448042    -0.013748451201892     0.000393161189534
     0.012118050911264     0.002314583859444    -0.008104731681857
   5   7
    -0.028779792078486     0.015387895159616    -0.039106263682048
     0.020466052512643    -0.029003265048268    -0.018328574601944
    -0.040091003085807    -0.004610926379809    -0.021612952715688
   5   8
     0.013365820769277     0.005499249690321     0.016843232726408
    -0.010171109488396     0.017289742133503    -0.000157127750278
     0.015480272189023    -0.002665280195198    -0.033458698445251
   5   9
    -0.852935898970713    -0.014710535880576     0.913487497439009
    -0.006709859880035     0.062120730377150     0.023818558955677
     0.895720940572289     0.025459615106859    -0.815176823255590
   5  10
     0.103085358502705    -0.009680188721467    -0.007993560928773
    -0.011552028738885    -0.836519389343699    -0.921580684678782
    -0.014048798280843    -0.911446820539960    -0.804886698042952
   5  11
    -0.024074837038533     0.017301378003816     0.016151317285126
     0.017510925666719    -0.026869123081817    -0.025150585988424
     0.009379494440313    -0.022735068543475    -0.036316666853499
   5  12
    -0.020295473856924     0.015031034251653     0.024321972294265
     0.025686268453546     0.005680659887958    -0.003178649010169
     0.028770132115565    -0.005864190484257     0.010126799520162
   5  13
     0.000994018721592     0.004865908934179    -0.031147330576234
    -0.005777810954523    -0.010560704338499     0.030309868728721
    -0.024284114789819     0.017890850845702    -0.024910987819748
   5  14
    -0.782505015141834    -0.007421335280146    -0.840243370935354
    -0.008136554394986     0.080286097534932    -0.011774269965256
    -0.837513879598307    -0.014788550528879    -0.747016214120831
   5  15
     0.098520605517850    -0.013116649807453    -0.000813374228005
    -0.016459376373062    -0.753694960447806     0.830538158715064
     0.008672231583212     0.830215730168732    -0.722635473887967
   5  16
     0.007367520304295    -0.009076511209818     0.008283298119367
     0.007943979736835    -0.103925458000979     0.007664443267444
     0.000904485579781     0.002910700410991     0.017938075652143
   5  17
    -0.640911262284675     0.686724156088212    -0.003142412698340
     0.683061147103194    -0.628006011542150     0.006162044116325
     0.002977535935899     0.000574903029520     0.058625007831255
   5  18
    -0.060818029622271     0.007971296786834    -0.005067772082605
     0.001618316979019    -0.009404189690472    -0.006367805098877
     0.002224254353669    -0.007269764924635     0.023395912252328
   5  19
    -0.060822688157098     0.007965719273933    -0.005064770183739
     0.001625826909065    -0.009428159766070    -0.006380816425789
     0.002221136501115    -0.007254737164894     0.023392871575662
   5  20
    -0.641099054859954     0.686919728939854    -0.003179625696457
     0.683270166540529    -0.628160049035200     0.006203162764501
     0.002975231071492     0.000580595768608     0.058640772888947
   5  21
     0.098457779355892    -0.013100580463927    -0.000801798126099
    -0.016420751371024    -0.753064915902444     0.829459764503013
     0.008621259435595     0.829272819061216    -0.721456289321468
   5  22
    -0.782989754934299    -0.007246803784485    -0.840663711448930
    -0.007976679450065     0.080336813500874    -0.011588400463708
    -0.837998931999443    -0.014582403161865    -0.747322686791515
   5  23
     0.000989244503724     0.004852758521854    -0.031143254790444
    -0.005793796494429    -0.010581174299717     0.030336857616443