30
Lattice="-4.047521670501117 5.944404872161057 -1.9764580199249018 -4.047605976757082 -3.9567353607427105 7.924539670625178 2.0484583869080706 3.9941550430330217 5.974282878859832" Properties=Z:I:1:pos:R:3:vasp_force:R:3 uuid=7b95335f-53ea-4af9-b1b5-f4457353d7bc vasp_virial="0.03096952747433357 -0.09100032270147328 -0.049665679628262356 -0.09100032270147328 -0.07064155807431417 0.018267767318483855 -0.049665679628262356 0.018267767318483855 -0.018845937061427016" vasp_energy=-132.40794099 pbc="T T T"
      46       2.02538183       4.00463912       5.97406496       0.03472400      -0.05211400       0.01859400 
      46      -2.01672977       7.96084565       5.98045652      -0.00138000       0.01301200      -0.01265300 
      46      -2.01674663       5.98061760       7.96065606      -0.00142700       0.00246800      -0.00156500 
      46      -2.01676349       4.00038956       9.94085560      -0.00112900       0.00302900      -0.00122500 
      46      -2.01678035       2.02016151      11.92105513      -0.00064800       0.01356900      -0.01189600 
      46       0.04020338       2.00622673       5.96673883       0.00408000      -0.00076100       0.00026500 
      46      -4.00733515       5.97040356       5.97048035       0.00143800      -0.00163600       0.00059100 
      46      -4.00735202       3.99017551       7.95067989       0.00080100      -0.00182900       0.00031600 
      46      -4.00736888       2.00994746       9.93087943       0.00079200      -0.00170100      -0.00003700 
      46       0.04022024       3.98645478       3.98653929      -0.00583900      -0.00252400      -0.00786100 
      46      -4.06306955       5.95396552       1.99335586      -0.00087000       0.00191400      -0.00058300 
      46      -4.06308641       3.97373748       3.97355540      -0.00150300       0.00188000       0.00021800 
      46      -4.06310327       1.99350943       5.95375493      -0.00176000       0.00132000      -0.00033700 
      46      -4.06312013       0.01328138       7.93395447      -0.00064200       0.00271300      -0.00030400 
      46      -0.01553102       1.98978870       1.98961434      -0.00054500       0.00655600       0.00429700 
      46      -2.00613654      -0.00065336       1.97963825      -0.00063000      -0.00391500       0.00602600 
      46      -6.05367507       3.96352346       1.98337976       0.00126900      -0.00290200       0.00128800 
      46      -6.05369193       1.98329542       3.96357930      -0.00120100      -0.00324100       0.00362400 
      46      -6.05370879       0.00306737       5.94377884      -0.00849900       0.00681100       0.00075500 
      46      -2.00611967       1.97957468      -0.00056129      -0.01308700       0.01144600       0.00163400 
      47      -2.01964682       1.99352647       3.97361512       0.00074300       0.00009300       0.00063300 
      47      -2.01966368       0.01329842       5.95381465       0.00053400       0.00018600       0.00045900 
      47      -6.06720221       3.97747525       5.95755617       0.00394200       0.00116200       0.00135500 
      47      -6.06721907       1.99724720       7.93775571      -0.00673400      -0.00107400      -0.00657800 
      47      -2.01962996       3.97375452       1.99341558      -0.00005700       0.00006500       0.00088400 
      47      -2.00323639       3.98643765       5.96667905      -0.00076000      -0.00011700      -0.00108800 
      47      -2.00325325       2.00620960       7.94687859      -0.00095300       0.00009700      -0.00107400 
      47      -2.00327011       0.02598155       9.92707812      -0.00012900       0.00011100      -0.00123600 
      47      -6.05080864       3.99015838       9.93081964       0.00032400       0.00487800       0.00595500 
      47      -2.00321953       5.96666569       3.98647951      -0.00085200       0.00050200      -0.00045700 
30
Lattice="-4.047521670501117 5.944404872161057 -1.9764580199249018 -4.047605976757082 -3.9567353607427105 7.924539670625178 2.0484583869080706 3.9941550430330217 5.974282878859832" Properties=Z:I:1:pos:R:3:vasp_force:R:3 uuid=0c6e9ad8-d10c-47d9-9b71-20ca7a91dbb0 vasp_virial="0.02620936311403989 -0.07841839047162216 -0.05404239462536057 -0.07841839047162216 -0.07642625120189574 0.022225084574587037 -0.05404239462536057 0.022225084574587037 -0.017437958930943673" vasp_energy=-132.40788994 pbc="T T T"
      46       2.03080877       3.99666882       5.97671500       0.00683000       0.01094600      -0.00114100 
      46      -2.01672977       7.96084565       5.98045652      -0.00599200       0.00303500      -0.00523400 
      46      -2.01674663       5.98061760       7.96065606      -0.00111800       0.00272700      -0.00266800 
      46      -2.01676349       4.00038956       9.94085560      -0.00083700       0.00305300      -0.00154400 
      46      -2.01678035       2.02016151      11.92105513      -0.00050900       0.00396400      -0.00172700 
      46       0.04435970       2.01028974       5.95860145      -0.03110300      -0.03028400       0.05937300 
      46      -4.00733515       5.97040356       5.97048035       0.00078100       0.00971700      -0.01052800 
      46      -4.00735202       3.99017551       7.95067989       0.00084400      -0.00181900      -0.00000500 
      46      -4.00736888       2.00994746       9.93087943       0.00120500      -0.00151000       0.00041300 
      46       0.04022024       3.98645478       3.98653929       0.00126800       0.00953200      -0.01215200 
      46      -4.06306955       5.95396552       1.99335586      -0.00125400      -0.00092800      -0.00442600 
      46      -4.06308641       3.97373748       3.97355540      -0.00172400       0.00205900      -0.00010000 
      46      -4.06310327       1.99350943       5.95375493      -0.00101000       0.00148500      -0.00021800 
      46      -4.06312013       0.01328138       7.93395447      -0.00051500       0.00155400       0.00027500 
      46      -0.01553102       1.98978870       1.98961434      -0.00094500       0.00203200      -0.00153400 
      46      -2.00613654      -0.00065336       1.97963825       0.00033300      -0.00760400      -0.00068200 
      46      -6.05367507       3.96352346       1.98337976       0.00140700      -0.00274500       0.00140000 
      46      -6.05369193       1.98329542       3.96357930       0.00104400      -0.00338400       0.00172100 
      46      -6.05370879       0.00306737       5.94377884       0.00131100      -0.00361500       0.00160200 
      46      -2.00611967       1.97957468      -0.00056129       0.00065700      -0.00228600       0.00217700 
      47      -2.01964682       1.99352647       3.97361512      -0.00361900      -0.00044100      -0.00222200 
      47      -2.01966368       0.01329842       5.95381465       0.00757400       0.00689000       0.00134100 
      47      -6.06720221       3.97747525       5.95755617       0.00083800       0.00014500       0.00112500 
      47      -6.06721907       1.99724720       7.93775571       0.00104700      -0.00010400       0.00113900 
      47      -2.01962996       3.97375452       1.99341558      -0.00004000      -0.00010600       0.00100300 
      47      -2.00323639       3.98643765       5.96667905      -0.00101400      -0.00042800      -0.00013600 
      47      -2.00325325       2.00620960       7.94687859       0.01182800      -0.00050100      -0.01241500 
      47      -2.00327011       0.02598155       9.92707812      -0.00015800       0.00030400      -0.00152700 
      47      -6.05080864       3.99015838       9.93081964       0.01415400      -0.00071200      -0.01390700 
      47      -2.00321953       5.96666569       3.98647951      -0.00128400      -0.00097700       0.00059700 
30
Lattice="-4.047521670501117 5.944404872161057 -1.9764580199249018 -4.047605976757082 -3.9567353607427105 7.924539670625178 2.0484583869080706 3.9941550430330217 5.974282878859832" Properties=Z:I:1:pos:R:3:vasp_force:R:3 uuid=d59c6b66-64b6-4f5d-894b-596e8b87acc4 vasp_virial="0.02516985585600219 -0.07802295831582683 -0.045351874292313396 -0.07802295831582683 -0.06874827684353657 0.028246437856015785 -0.045351874292313396 0.028246437856015785 -0.01299533857454624" vasp_energy=-132.40792503 pbc="T T T"
      46       2.03080877       3.99666882       5.97671500       0.00755700       0.01057600      -0.00241700 
      46      -2.01672977       7.96084565       5.98045652       0.01032200       0.00337800       0.00739600 
      46      -2.01674663       5.98061760       7.96065606      -0.00071600       0.00246400      -0.00169100 
      46      -2.01676349       4.00038956       9.94085560      -0.00098300       0.00355200      -0.00095600 
      46      -2.01678035       2.02016151      11.92105513      -0.00059300       0.00349500      -0.00160800 
      46       0.04294463       2.01157172       5.97473362      -0.01693500      -0.03867000      -0.05565000 
      46      -4.00733515       5.97040356       5.97048035       0.00035300      -0.00531400       0.00337400 
      46      -4.00735202       3.99017551       7.95067989       0.00068500      -0.00201000      -0.00013600 
      46      -4.00736888       2.00994746       9.93087943       0.00104600      -0.00211800       0.00030600 
      46       0.04022024       3.98645478       3.98653929       0.00081000      -0.00432100       0.00213500 
      46      -4.06306955       5.95396552       1.99335586      -0.00066100       0.01342400       0.01142600 
      46      -4.06308641       3.97373748       3.97355540      -0.00149200       0.00220000       0.00000200 
      46      -4.06310327       1.99350943       5.95375493      -0.00099400       0.00155500      -0.00055900 
      46      -4.06312013       0.01328138       7.93395447      -0.00086100       0.00188300      -0.00046400 
      46      -0.01553102       1.98978870       1.98961434      -0.00115400       0.00260000       0.00005900 
      46      -2.00613654      -0.00065336       1.97963825       0.00170800       0.00991900       0.01567600 
      46      -6.05367507       3.96352346       1.98337976       0.00090900      -0.00319000       0.00262700 
      46      -6.05369193       1.98329542       3.96357930       0.00066000      -0.00308100       0.00132100 
      46      -6.05370879       0.00306737       5.94377884       0.00140300      -0.00342900       0.00111000 
      46      -2.00611967       1.97957468      -0.00056129       0.00078400      -0.00238200       0.00220900 
      47      -2.01964682       1.99352647       3.97361512       0.01071600       0.00009000       0.00959700 
      47      -2.01966368       0.01329842       5.95381465       0.00789300       0.00678300      -0.00022200 
      47      -6.06720221       3.97747525       5.95755617       0.00061600      -0.00003600       0.00095000 
      47      -6.06721907       1.99724720       7.93775571       0.00096900       0.00006200       0.00141500 
      47      -2.01962996       3.97375452       1.99341558       0.00074800      -0.00011600       0.00148600 
      47      -2.00323639       3.98643765       5.96667905      -0.00370100       0.00186700      -0.00222400 
      47      -2.00325325       2.00620960       7.94687859      -0.00713800      -0.00064700       0.00307700 
      47      -2.00327011       0.02598155       9.92707812      -0.00049900       0.00007400      -0.00098600 
      47      -6.05080864       3.99015838       9.93081964      -0.00709500      -0.00080400       0.00436300 
      47      -2.00321953       5.96666569       3.98647951      -0.00435700       0.00219600      -0.00161700 
30
Lattice="-4.047521670501117 5.944404872161057 -1.9764580199249018 -4.047605976757082 -3.9567353607427105 7.924539670625178 2.0484583869080706 3.9941550430330217 5.974282878859832" Properties=Z:I:1:pos:R:3:vasp_force:R:3 uuid=4e3d87a7-4c52-44a5-ba15-62a813f896ed vasp_virial="0.01744095462909364 -0.0826483162593721 -0.051529003877540315 -0.0826483162593721 -0.08735755375111638 0.021685858907593412 -0.051529003877540315 0.021685858907593412 -0.029995925575595092" vasp_energy=-132.40790703 pbc="T T T"
      46       2.03080877       3.99666882       5.97671500      -0.00926400      -0.00425900      -0.00147300 
      46      -2.01672977       7.96084565       5.98045652      -0.01209500       0.00324400      -0.01217100 
      46      -2.01674663       5.98061760       7.96065606      -0.00115900       0.00299000      -0.00262000 
      46      -2.01676349       4.00038956       9.94085560      -0.00101800       0.00281100      -0.00194600 
      46      -2.01678035       2.02016151      11.92105513      -0.00088500       0.00308300      -0.00124200 
      46       0.03746213       2.00088175       5.95874404       0.01822800       0.03548500       0.05638400 
      46      -4.00733515       5.97040356       5.97048035       0.00181200       0.00117000      -0.00174700 
      46      -4.00735202       3.99017551       7.95067989       0.00092300      -0.00169300       0.00041300 
      46      -4.00736888       2.00994746       9.93087943       0.00132300      -0.00141300       0.00058000 
      46       0.04022024       3.98645478       3.98653929       0.00231100       0.00048900      -0.00188500 
      46      -4.06306955       5.95396552       1.99335586      -0.00134600      -0.00996400      -0.01266900 
      46      -4.06308641       3.97373748       3.97355540      -0.00158500       0.00156000      -0.00025600 
      46      -4.06310327       1.99350943       5.95375493      -0.00132100       0.00190800      -0.00034500 
      46      -4.06312013       0.01328138       7.93395447      -0.00070700       0.00174200       0.00017500 
      46      -0.01553102       1.98978870       1.98961434      -0.00098700       0.00148100      -0.00172300 
      46      -2.00613654      -0.00065336       1.97963825       0.00051400      -0.01603000      -0.00996300 
      46      -6.05367507       3.96352346       1.98337976       0.00109000      -0.00300900       0.00119400 
      46      -6.05369193       1.98329542       3.96357930       0.00086400      -0.00356100       0.00151300 
      46      -6.05370879       0.00306737       5.94377884       0.00062600      -0.00298900       0.00178900 
      46      -2.00611967       1.97957468      -0.00056129       0.00115100      -0.00314500       0.00210700 
      47      -2.01964682       1.99352647       3.97361512      -0.00962400       0.00019000      -0.00890300 
      47      -2.01966368       0.01329842       5.95381465      -0.00744300      -0.00689800       0.00119400 
      47      -6.06720221       3.97747525       5.95755617       0.00017600      -0.00045900       0.00128700 
      47      -6.06721907       1.99724720       7.93775571       0.00084000      -0.00014600       0.00092400 
      47      -2.01962996       3.97375452       1.99341558       0.00008300      -0.00005900       0.00080500 
      47      -2.00323639       3.98643765       5.96667905       0.00292300      -0.00177900      -0.00009400 
      47      -2.00325325       2.00620960       7.94687859       0.00529200       0.00063500      -0.00539200 
      47      -2.00327011       0.02598155       9.92707812      -0.00023700       0.00035600      -0.00125700 
      47      -6.05080864       3.99015838       9.93081964       0.00659200       0.00071000      -0.00531100 
      47      -2.00321953       5.96666569       3.98647951       0.00292200      -0.00245000       0.00063000 
30
Lattice="-4.047521670501117 5.944404872161057 -1.9764580199249018 -4.047605976757082 -3.9567353607427105 7.924539670625178 2.0484583869080706 3.9941550430330217 5.974282878859832" Properties=Z:I:1:pos:R:3:vasp_force:R:3 uuid=c983e99f-c30f-4b70-b512-98b0ae7efd31 vasp_virial="0.027539453092624153 -0.08669850015812418 -0.04817082625143004 -0.08669850015812418 -0.07318191010548412 0.022356895293185474 -0.04817082625143004 0.022356895293185474 -0.01934921435062106" vasp_energy=-132.40791326 pbc="T T T"
      46       2.03080877       3.99666882       5.97671500      -0.00051700       0.00319600      -0.00207400 
      46      -2.01672977       7.96084565       5.98045652      -0.00083600       0.00756500       0.00217600 
      46      -2.01674663       5.98061760       7.96065606      -0.00132100       0.00329300      -0.00227800 
      46      -2.01676349       4.00038956       9.94085560      -0.00134700       0.00290300      -0.00140800 
      46      -2.01678035       2.02016151      11.92105513      -0.00079900       0.00323000      -0.00105000 
      46       0.04020338       2.00622673       5.96673883       0.00097500       0.00319500       0.00433900 
      46      -4.00733515       5.97040356       5.97048035       0.00130600      -0.00183900       0.00091300 
      46      -4.00735202       3.99017551       7.95067989       0.00075900      -0.00210700       0.00055400 
      46      -4.00736888       2.00994746       9.93087943       0.00087300      -0.00212000       0.00053100 
      46       0.04022024       3.98645478       3.98653929       0.00146500      -0.00139000       0.00004200 
      46      -4.06849649       5.96193582       1.99070581       0.04126800      -0.05666800       0.01810400 
      46      -4.06308641       3.97373748       3.97355540      -0.00143100       0.01208100      -0.01047100 
      46      -4.06310327       1.99350943       5.95375493      -0.00111500       0.00176400      -0.00045900 
      46      -4.06312013       0.01328138       7.93395447      -0.00070700       0.00179400      -0.00036600 
      46      -0.01553102       1.98978870       1.98961434      -0.00095800       0.01285500      -0.01072600 
      46      -2.00613654      -0.00065336       1.97963825      -0.00632500      -0.00381800      -0.00485400 
      46      -6.05367507       3.96352346       1.98337976       0.00451200      -0.00141100       0.00202600 
      46      -6.05369193       1.98329542       3.96357930       0.00092200      -0.00301700       0.00118000 
      46      -6.05370879       0.00306737       5.94377884       0.00087100      -0.00334500       0.00147700 
      46      -2.00611967       1.97957468      -0.00056129       0.00077400      -0.00260200       0.00152500 
      47      -2.01964682       1.99352647       3.97361512      -0.01500100       0.01528900       0.00095400 
      47      -2.01966368       0.01329842       5.95381465      -0.00226500      -0.00110400       0.00436200 
      47      -6.06720221       3.97747525       5.95755617       0.00056200      -0.00024800       0.00088400 
      47      -6.06721907       1.99724720       7.93775571      -0.00141700      -0.00096800       0.00432300 
      47      -2.01962996       3.97375452       1.99341558      -0.01343200       0.01247200       0.00144800 
      47      -2.00323639       3.98643765       5.96667905      -0.00080900       0.00016200      -0.00152600 
      47      -2.00325325       2.00620960       7.94687859      -0.00095600      -0.00007800      -0.00112000 
      47      -2.00327011       0.02598155       9.92707812      -0.00002900       0.00033100      -0.00118200 
      47      -6.05080864       3.99015838       9.93081964       0.00276000       0.00136900      -0.00022700 
      47      -2.00321953       5.96666569       3.98647951      -0.00778300      -0.00078400      -0.00709600 
30
Lattice="-4.047521670501117 5.944404872161057 -1.9764580199249018 -4.047605976757082 -3.9567353607427105 7.924539670625178 2.0484583869080706 3.9941550430330217 5.974282878859832" Properties=Z:I:1:pos:R:3:vasp_force:R:3 uuid=1c52e8b2-b543-4cd1-80d7-6609879a86aa vasp_virial="0.018669190870579108 -0.07672282531874222 -0.048964686261170655 -0.07672282531874222 -0.07956574286305858 0.024903238720655342 -0.048964686261170655 0.024903238720655342 -0.02015505715296153" vasp_energy=-132.40787233 pbc="T T T"
      46       2.03080877       3.99666882       5.97671500      -0.00144800       0.00299700      -0.00175000 
      46      -2.01672977       7.96084565       5.98045652      -0.00140600      -0.00088500      -0.00739900 
      46      -2.01674663       5.98061760       7.96065606      -0.00059000       0.00222700      -0.00202900 
      46      -2.01676349       4.00038956       9.94085560      -0.00065900       0.00351400      -0.00148400 
      46      -2.01678035       2.02016151      11.92105513      -0.00070300       0.00341100      -0.00178300 
      46       0.04020338       2.00622673       5.96673883       0.00108600      -0.00722100      -0.00356300 
      46      -4.00733515       5.97040356       5.97048035       0.00083300      -0.00224900       0.00074700 
      46      -4.00735202       3.99017551       7.95067989       0.00081100      -0.00153200      -0.00027000 
      46      -4.00736888       2.00994746       9.93087943       0.00144300      -0.00136200       0.00036500 
      46       0.04022024       3.98645478       3.98653929       0.00161900      -0.00238700       0.00019700 
      46      -4.05764261       5.94599523       1.99600590      -0.04296000       0.05990200      -0.01899700 
      46      -4.06308641       3.97373748       3.97355540      -0.00173000      -0.00861900       0.01067300 
      46      -4.06310327       1.99350943       5.95375493      -0.00124100       0.00176800      -0.00041900 
      46      -4.06312013       0.01328138       7.93395447      -0.00087800       0.00190200       0.00008100 
      46      -0.01553102       1.98978870       1.98961434      -0.00115900      -0.00836100       0.00867700 
      46      -2.00613654      -0.00065336       1.97963825       0.00836000      -0.00293100       0.00978500 
      46      -6.05367507       3.96352346       1.98337976      -0.00258700      -0.00468600       0.00180600 
      46      -6.05369193       1.98329542       3.96357930       0.00055500      -0.00356400       0.00167700 
      46      -6.05370879       0.00306737       5.94377884       0.00112400      -0.00301800       0.00142800 
      46      -2.00611967       1.97957468      -0.00056129       0.00110800      -0.00285300       0.00278500 
      47      -2.01964682       1.99352647       3.97361512       0.01576000      -0.01436600       0.00010200 
      47      -2.01966368       0.01329842       5.95381465       0.00292100       0.00120400      -0.00343000 
      47      -6.06720221       3.97747525       5.95755617       0.00019500      -0.00018400       0.00136800 
      47      -6.06721907       1.99724720       7.93775571       0.00316400       0.00096300      -0.00198200 
      47      -2.01962996       3.97375452       1.99341558       0.01486300      -0.01315800       0.00081000 
      47      -2.00323639       3.98643765       5.96667905      -0.00000200       0.00001000      -0.00075600 
      47      -2.00325325       2.00620960       7.94687859      -0.00082700       0.00015800      -0.00121100 
      47      -2.00327011       0.02598155       9.92707812      -0.00073900       0.00016100      -0.00105100 
      47      -6.05080864       3.99015838       9.93081964      -0.00340100      -0.00146600      -0.00067400 
      47      -2.00321953       5.96666569       3.98647951       0.00648900       0.00062400       0.00629600 
30
Lattice="-4.047521670501117 5.944404872161057 -1.9764580199249018 -4.047605976757082 -3.9567353607427105 7.924539670625178 2.0484583869080706 3.9941550430330217 5.974282878859832" Properties=Z:I:1:pos:R:3:vasp_force:R:3 uuid=b909c836-0b03-4437-8c31-63cfa2310183 vasp_virial="0.02618839322699014 -0.07841839047162216 -0.05404239462536057 -0.07841839047162216 -0.07644722108894549 0.022225084574587037 -0.05404239462536057 0.022225084574587037 -0.017458928817993425" vasp_energy=-132.40788994 pbc="T T T"
      46       2.03080877       3.99666882       5.97671500      -0.00140800       0.00274400      -0.00140000 
      46      -2.01672977       7.96084565       5.98045652      -0.00033300       0.00760400       0.00068100 
      46      -2.01674663       5.98061760       7.96065606      -0.00065700       0.00228600      -0.00217700 
      46      -2.01676349       4.00038956       9.94085560      -0.00131100       0.00361400      -0.00160300 
      46      -2.01678035       2.02016151      11.92105513      -0.00104400       0.00338400      -0.00172200 
      46       0.04020338       2.00622673       5.96673883       0.00125300       0.00092800       0.00442600 
      46      -4.00733515       5.97040356       5.97048035       0.00094400      -0.00203200       0.00153400 
      46      -4.00735202       3.99017551       7.95067989       0.00051400      -0.00155400      -0.00027500 
      46      -4.00736888       2.00994746       9.93087943       0.00100900      -0.00148500       0.00021800 
      46       0.04022024       3.98645478       3.98653929       0.00172300      -0.00205900       0.00010000 
      46      -4.06722587       5.94990251       2.00149324       0.03110200       0.03028400      -0.05937300 
      46      -4.06308641       3.97373748       3.97355540      -0.00126900      -0.00953200       0.01215300 
      46      -4.06310327       1.99350943       5.95375493      -0.00120600       0.00151000      -0.00041300 
      46      -4.06312013       0.01328138       7.93395447      -0.00084500       0.00181900       0.00000500 
      46      -0.01553102       1.98978870       1.98961434      -0.00078200      -0.00971700       0.01052800 
      46      -2.00613654      -0.00065336       1.97963825       0.00599100      -0.00303600       0.00523400 
      46      -6.05367507       3.96352346       1.98337976      -0.00683100      -0.01094700       0.00114000 
      46      -6.05369193       1.98329542       3.96357930       0.00050800      -0.00396400       0.00172700 
      46      -6.05370879       0.00306737       5.94377884       0.00083600      -0.00305300       0.00154400 
      46      -2.00611967       1.97957468      -0.00056129       0.00111800      -0.00272800       0.00266700 
      47      -2.01964682       1.99352647       3.97361512       0.00128500       0.00097700      -0.00059600 
      47      -2.01966368       0.01329842       5.95381465      -0.01415300       0.00071200       0.01390700 
      47      -6.06720221       3.97747525       5.95755617       0.00015900      -0.00030300       0.00152800 
      47      -6.06721907       1.99724720       7.93775571      -0.01182600       0.00050200       0.01241500 
      47      -2.01962996       3.97375452       1.99341558       0.00101500       0.00042800       0.00013600 
      47      -2.00323639       3.98643765       5.96667905       0.00004100       0.00010700      -0.00100300 
      47      -2.00325325       2.00620960       7.94687859      -0.00104600       0.00010400      -0.00113900 
      47      -2.00327011       0.02598155       9.92707812      -0.00083700      -0.00014500      -0.00112400 
      47      -6.05080864       3.99015838       9.93081964      -0.00757200      -0.00688900      -0.00134000 
      47      -2.00321953       5.96666569       3.98647951       0.00362000       0.00044200       0.00222200 
30
Lattice="-4.047521670501117 5.944404872161057 -1.9764580199249018 -4.047605976757082 -3.9567353607427105 7.924539670625178 2.0484583869080706 3.9941550430330217 5.974282878859832" Properties=Z:I:1:pos:R:3:vasp_force:R:3 uuid=c11504ef-0c2c-40c6-bed8-8a3754aeb5aa vasp_virial="0.01919942944312283 -0.08249253995557394 -0.0448276271160696 -0.08249253995557394 -0.0762854533888474 0.024480845281510344 -0.0448276271160696 0.024480845281510344 -0.021943488948490363" vasp_energy=-132.40790294 pbc="T T T"
      46       2.03080877       3.99666882       5.97671500      -0.00054600       0.00346600      -0.00245100 
      46      -2.01672977       7.96084565       5.98045652      -0.00186900      -0.00090800      -0.00583900 
      46      -2.01674663       5.98061760       7.96065606      -0.00124200       0.00325500      -0.00215600 
      46      -2.01676349       4.00038956       9.94085560      -0.00068600       0.00283100      -0.00131200 
      46      -2.01678035       2.02016151      11.92105513      -0.00044600       0.00328100      -0.00114500 
      46       0.04020338       2.00622673       5.96673883       0.00079600      -0.00491900      -0.00378100 
      46      -4.00733515       5.97040356       5.97048035       0.00122200      -0.00202300       0.00010500 
      46      -4.00735202       3.99017551       7.95067989       0.00106500      -0.00206200       0.00052600 
      46      -4.00736888       2.00994746       9.93087943       0.00132200      -0.00196900       0.00065200 
      46       0.04022024       3.98645478       3.98653929       0.00136400      -0.00170500       0.00011000 
      46      -4.05891323       5.95802853       1.98521848      -0.03315100      -0.02771500       0.05924800 
      46      -4.06308641       3.97373748       3.97355540      -0.00177800       0.01286100      -0.01189800 
      46      -4.06310327       1.99350943       5.95375493      -0.00112600       0.00203500      -0.00050800 
      46      -4.06312013       0.01328138       7.93395447      -0.00074500       0.00190400      -0.00030400 
      46      -0.01553102       1.98978870       1.98961434      -0.00141500       0.01443500      -0.01271500 
      46      -2.00613654      -0.00065336       1.97963825      -0.00383800      -0.00364700      -0.00012400 
      46      -6.05367507       3.96352346       1.98337976       0.00860100       0.00465700       0.00260000 
      46      -6.05369193       1.98329542       3.96357930       0.00097900      -0.00260400       0.00110500 
      46      -6.05370879       0.00306737       5.94377884       0.00116700      -0.00328300       0.00133700 
      46      -2.00611967       1.97957468      -0.00056129       0.00077400      -0.00270100       0.00162800 
      47      -2.01964682       1.99352647       3.97361512       0.00022500      -0.00070700       0.00158100 