30
Lattice="-6.082373815943845 -2.027736605773601 0.0001490213928879 5.393537443e-07 -8.110948499418626 0.0005946714586182 2.0274511867991376 4.054733598838928 10.113451463639969" Properties=Z:I:1:pos:R:3:vasp_force:R:3 uuid=8e91b6eb-8746-4bad-bfbd-a19f94efc608 vasp_virial="-0.0682850690907647 0.048650036454413556 0.11444063113729286 0.048650036454413556 -0.02145995398843706 -0.045423724985538094 0.11444063113729286 -0.045423724985538094 0.07290965647617016" vasp_energy=-112.90123178 pbc="T T T"
      46      -0.00948697      -6.08674397       2.03803566       0.06099600       0.02059500       0.00195500 
      46      -4.05491623      -6.08358096       2.03803566      -0.00937200      -0.00988300       0.00215800 
      46      -2.02745838      -4.05584401       2.03788687      -0.00423900       0.00451300       0.00197000 
      46      -0.00000053      -2.02810705       2.03773809       0.00082300      -0.00120400       0.00221400 
      46      -4.05491650      -2.02810671       2.03773832      -0.00418000       0.00437200       0.00213900 
      46      -2.02745865      -0.00036976       2.03758954      -0.00980300      -0.01038600       0.00200600 
      46      -0.00000415      -6.08343372       6.05385552      -0.00017800      -0.00068600      -0.00245800 
      46      -4.05492012      -6.08343338       6.05385576      -0.00047200      -0.00076000      -0.00236400 
      46      -2.02746227      -4.05569642       6.05370697      -0.00049700      -0.00076800      -0.00237000 
      46      -0.00000442      -2.02795947       6.05355819      -0.00026400      -0.00078500      -0.00241100 
      46      -4.05492039      -2.02795913       6.05355842      -0.00039100      -0.00080700      -0.00250400 
      46      -2.02746254      -0.00022217       6.05340964      -0.00060800      -0.00078300      -0.00248400 
      47      -0.00000565      -4.05573643       8.04674378       0.00031900       0.00043700      -0.00044600 
      47      -4.05492162      -4.05573609       8.04674401       0.00056100       0.00059600      -0.00023500 
      47      -2.02746377      -2.02799913       8.04659523       0.00029300       0.00047700      -0.00006700 
      47      -0.00000592      -0.00026218       8.04644644       0.00030200       0.00046600      -0.00045200 
      47      -4.05492189      -0.00026184       8.04644668       0.00043000       0.00050200      -0.00026800 
      47      -2.02746350      -6.08347338       8.04689256       0.00028700       0.00049900      -0.00011200 
      47       0.00000097      -4.05580450       0.04485246       0.00043100      -0.00263600       0.00358900 
      47      -4.05491500      -4.05580416       0.04485269      -0.00056700       0.00029200       0.00013600 
      47      -2.02745715      -2.02806721       0.04470391      -0.00058400       0.00025300       0.00041500 
      47       0.00000070      -0.00033025       0.04455512       0.00046200      -0.00262500      -0.00312700 
      47      -4.05491473      -8.11127841       0.04515003      -0.00924300       0.00048400       0.00985400 
      47      -2.02745688      -6.08354145       0.04500124      -0.00949300       0.00049700      -0.00966500 
      47      -0.00000235      -4.05577049       4.04579467       0.00086500      -0.00236200      -0.00283000 
      47      -4.05491831      -4.05577015       4.04579491      -0.00000400       0.00038500       0.00054300 
      47      -2.02746046      -2.02803319       4.04564612       0.00006100       0.00041000       0.00020900 
      47      -0.00000262      -0.00029624       4.04549733       0.00088900      -0.00236400       0.00353200 
      47      -4.05491804      -8.11124440       4.04609224      -0.00831300       0.00062100      -0.00867700 
      47      -2.02746019      -6.08350744       4.04594346      -0.00851200       0.00065100       0.00974700 
30
Lattice="-6.082373815943845 -2.027736605773601 0.0001490213928879 5.393537443e-07 -8.110948499418626 0.0005946714586182 2.0274511867991376 4.054733598838928 10.113451463639969" Properties=Z:I:1:pos:R:3:vasp_force:R:3 uuid=5d03d025-0445-4645-b9aa-de35d0b02b72 vasp_virial="-0.06694907717942535 0.04843515663650583 0.1130641546225796 0.04843515663650583 -0.021139191361705237 -0.04441472410144963 0.1130641546225796 -0.04441472410144963 0.07353872492859567" vasp_energy=-112.90123032 pbc="T T T"
      46      -0.00000026      -6.08358130       2.03803542       0.00043400      -0.00074500       0.00211300 
      46      -4.05491623      -6.08358096       2.03803566       0.00044700      -0.00047800       0.00199000 
      46      -2.02745838      -4.05584401       2.03788687       0.00048700      -0.00051400       0.00196400 
      46      -0.00000053      -2.02810705       2.03773809       0.00049300      -0.00060400       0.00209500 
      46      -4.05491650      -2.02810671       2.03773832       0.00046400      -0.00057900       0.00221700 
      46      -2.02745865      -0.00036976       2.03758954       0.00044700      -0.00054400       0.00223900 
      46      -0.00000415      -6.07343372       6.05385479      -0.00038700      -0.06388800      -0.00247000 
      46      -4.05492012      -6.08343338       6.05385576       0.00747900       0.00636800      -0.00233600 
      46      -2.02746227      -4.05569642       6.05370697      -0.00835800       0.00684900      -0.00237800 
      46      -0.00000442      -2.02795947       6.05355819      -0.00027000       0.00077400      -0.00242800 
      46      -4.05492039      -2.02795913       6.05355842      -0.00805900       0.00661400      -0.00256200 
      46      -2.02746254      -0.00022217       6.05340964       0.00715500       0.00613500      -0.00251400 
      47      -0.00000565      -4.05573643       8.04674378       0.00035700       0.00983500       0.01037500 
      47      -4.05492162      -4.05573609       8.04674401       0.00021300       0.00073700      -0.00029700 
      47      -2.02746377      -2.02799913       8.04659523       0.00019400       0.00068500      -0.00025700 
      47      -0.00000592      -0.00026218       8.04644644       0.00036700       0.00956400      -0.01051800 
      47      -4.05492189      -0.00026184       8.04644668       0.00049000      -0.00041800      -0.00026300 
      47      -2.02746350      -6.08347338       8.04689256       0.00049200      -0.00041400      -0.00028000 
      47       0.00000097      -4.05580450       0.04485246      -0.00049700       0.00042100       0.00009100 
      47      -4.05491500      -4.05580416       0.04485269      -0.00048700       0.00032000       0.00008400 
      47      -2.02745715      -2.02806721       0.04470391      -0.00053300       0.00011900       0.00024000 
      47       0.00000070      -0.00033025       0.04455512      -0.00047300       0.00040400       0.00039500 
      47      -4.05491473      -8.11127841       0.04515003      -0.00051200       0.00028100       0.00042300 
      47      -2.02745688      -6.08354145       0.04500124      -0.00044900       0.00010600       0.00028000 
      47      -0.00000235      -4.05577049       4.04579467       0.00008700       0.00934800      -0.00969800 
      47      -4.05491831      -4.05577015       4.04579491      -0.00002600       0.00063200       0.00038500 
      47      -2.02746046      -2.02803319       4.04564612      -0.00001300       0.00069300       0.00031900 
      47      -0.00000262      -0.00029624       4.04549733       0.00008800       0.00905600       0.01005400 
      47      -4.05491804      -8.11124440       4.04609224       0.00016900      -0.00038300       0.00035600 
      47      -2.02746019      -6.08350744       4.04594346       0.00019900      -0.00037100       0.00038200 
30
Lattice="-6.082373815943845 -2.027736605773601 0.0001490213928879 5.393537443e-07 -8.110948499418626 0.0005946714586182 2.0274511867991376 4.054733598838928 10.113451463639969" Properties=Z:I:1:pos:R:3:vasp_force:R:3 uuid=3fb3c216-5f56-43bc-8874-3c246217b188 vasp_virial="-0.06576256688054354 0.048818203268428305 0.11340360245086861 0.048818203268428305 -0.019171016797680827 -0.044480122306899815 0.11340360245086861 -0.044480122306899815 0.07619825195023627" vasp_energy=-112.90118609 pbc="T T T"
      46      -0.00000026      -6.08358130       2.03803542       0.00043100      -0.00058600       0.00245000 
      46      -4.05491623      -6.08358096       2.03803566       0.00058200      -0.00059100       0.00216700 
      46      -2.02745838      -4.05584401       2.03788687       0.00058300      -0.00062300       0.00229700 
      46      -0.00000053      -2.02810705       2.03773809       0.00043100      -0.00053300       0.00192200 
      46      -4.05491650      -2.02810671       2.03773832       0.00039200      -0.00042000       0.00231100 
      46      -2.02745865      -0.00036976       2.03758954       0.00037200      -0.00039000       0.00227200 
      46       0.00182518      -6.07977521       6.06298070      -0.01234400      -0.02423700      -0.06716100 
      46      -4.05492012      -6.08343338       6.05385576       0.00387800       0.00320500      -0.00246000 
      46      -2.02746227      -4.05569642       6.05370697      -0.00171800       0.00045800      -0.00293200 
      46      -0.00000442      -2.02795947       6.05355819      -0.00055900      -0.00014000      -0.00304200 
      46      -4.05492039      -2.02795913       6.05355842      -0.00195900       0.00064500      -0.00294400 
      46      -2.02746254      -0.00022217       6.05340964       0.00389900       0.00330800      -0.00251000 
      47      -0.00000565      -4.05573643       8.04674378       0.00018200       0.01321700       0.01216900 
      47      -4.05492162      -4.05573609       8.04674401       0.00011200       0.00054100      -0.00019400 
      47      -2.02746377      -2.02799913       8.04659523       0.00054900       0.00062600      -0.00016400 
      47      -0.00000592      -0.00026218       8.04644644       0.00023100      -0.00517400       0.00430500 
      47      -4.05492189      -0.00026184       8.04644668       0.01125400       0.00022700       0.01009600 
      47      -2.02746350      -6.08347338       8.04689256      -0.00692100       0.00015000       0.00621600 
      47       0.00000097      -4.05580450       0.04485246      -0.00034100       0.00032800       0.00044600 
      47      -4.05491500      -4.05580416       0.04485269      -0.00062900       0.00023500       0.00019700 
      47      -2.02745715      -2.02806721       0.04470391      -0.00046500       0.00023400       0.00033700 
      47       0.00000070      -0.00033025       0.04455512      -0.00036900       0.00035700       0.00049700 
      47      -4.05491473      -8.11127841       0.04515003      -0.00058100       0.00038400       0.00040500 
      47      -2.02745688      -6.08354145       0.04500124      -0.00048200       0.00025500       0.00002300 
      47      -0.00000235      -4.05577049       4.04579467      -0.00006600      -0.00501200       0.00461100 
      47      -4.05491831      -4.05577015       4.04579491       0.00024800       0.00056400       0.00048700 
      47      -2.02746046      -2.02803319       4.04564612      -0.00009700       0.00047000       0.00046000 
      47      -0.00000262      -0.00029624       4.04549733       0.00000300       0.01213500       0.01163200 
      47      -4.05491804      -8.11124440       4.04609224      -0.00679200       0.00014500       0.00630400 
      47      -2.02746019      -6.08350744       4.04594346       0.01017600       0.00022300       0.00980100 
30
Lattice="-6.082373815943845 -2.027736605773601 0.0001490213928879 5.393537443e-07 -8.110948499418626 0.0005946714586182 2.0274511867991376 4.054733598838928 10.113451463639969" Properties=Z:I:1:pos:R:3:vasp_force:R:3 uuid=3e09401b-a657-4fd0-b3a7-6d75f3d67e5d vasp_virial="-0.06992313842727868 0.04776248938044685 0.1125440831792377 0.04776248938044685 -0.023456156354797267 -0.04623653125327602 0.1125440831792377 -0.04623653125327602 0.06956500539743248" vasp_energy=-112.90122716 pbc="T T T"
      46      -0.00000026      -6.08358130       2.03803542       0.00052600      -0.00042300       0.00178700 
      46      -4.05491623      -6.08358096       2.03803566       0.00036700      -0.00041500       0.00205500 
      46      -2.02745838      -4.05584401       2.03788687       0.00037600      -0.00038200       0.00193100 
      46      -0.00000053      -2.02810705       2.03773809       0.00052700      -0.00047800       0.00230000 
      46      -4.05491650      -2.02810671       2.03773832       0.00056700      -0.00058800       0.00191400 
      46      -2.02745865      -0.00036976       2.03758954       0.00059100      -0.00061700       0.00195600 
      46      -0.00183348      -6.08709223       6.04473034       0.01109600       0.02234400       0.06176300 
      46      -4.05492012      -6.08343338       6.05385576      -0.00468800      -0.00464200      -0.00244000 
      46      -2.02746227      -4.05569642       6.05370697       0.00085500      -0.00197300      -0.00194500 
      46      -0.00000442      -2.02795947       6.05355819      -0.00032600      -0.00136200      -0.00182600 
      46      -4.05492039      -2.02795913       6.05355842       0.00105500      -0.00212400      -0.00191100 
      46      -2.02746254      -0.00022217       6.05340964      -0.00485400      -0.00486400      -0.00232200 
      47      -0.00000565      -4.05573643       8.04674378       0.00053700      -0.01156600      -0.01218200 
      47      -4.05492162      -4.05573609       8.04674401       0.00062800       0.00051400      -0.00033300 
      47      -2.02746377      -2.02799913       8.04659523       0.00019400       0.00043000      -0.00036200 
      47      -0.00000592      -0.00026218       8.04644644       0.00050000       0.00612500      -0.00480000 
      47      -4.05492189      -0.00026184       8.04644668      -0.01007200       0.00078900      -0.01027100 
      47      -2.02746350      -6.08347338       8.04689256       0.00747000       0.00087900      -0.00663300 
      47       0.00000097      -4.05580450       0.04485246      -0.00061100       0.00027300       0.00007100 
      47      -4.05491500      -4.05580416       0.04485269      -0.00031700       0.00036800       0.00032400 
      47      -2.02745715      -2.02806721       0.04470391      -0.00048800       0.00036900       0.00017700 
      47       0.00000070      -0.00033025       0.04455512      -0.00058600       0.00024700       0.00002400 
      47      -4.05491473      -8.11127841       0.04515003      -0.00037300       0.00022000       0.00011300 
      47      -2.02745688      -6.08354145       0.04500124      -0.00047100       0.00035100       0.00050100 
      47      -0.00000235      -4.05577049       4.04579467       0.00027100       0.00602200      -0.00391600 
      47      -4.05491831      -4.05577015       4.04579491      -0.00005300       0.00034500       0.00024200 
      47      -2.02746046      -2.02803319       4.04564612       0.00029500       0.00044000       0.00026900 
      47      -0.00000262      -0.00029624       4.04549733       0.00021200      -0.01179500      -0.01139400 
      47      -4.05491804      -8.11124440       4.04609224       0.00717200       0.00079000      -0.00568200 
      47      -2.02746019      -6.08350744       4.04594346      -0.01040200       0.00072400      -0.00941000 
30
Lattice="-6.082373815943845 -2.027736605773601 0.0001490213928879 5.393537443e-07 -8.110948499418626 0.0005946714586182 2.0274511867991376 4.054733598838928 10.113451463639969" Properties=Z:I:1:pos:R:3:vasp_force:R:3 uuid=b1659b24-9b95-4a50-958f-4df54ec3ebe2 vasp_virial="-0.06812935907778808 0.04855038204610852 0.12348426869097467 0.04855038204610852 -0.021755803013092635 -0.042714370759745 0.12348426869097467 -0.042714370759745 0.07294079847876549" vasp_energy=-112.90124228 pbc="T T T"
      46      -0.00000026      -6.08358130       2.03803542       0.00042400      -0.00056600       0.00200300 
      46      -4.05491623      -6.08358096       2.03803566       0.00039200      -0.00049000       0.00219000 
      46      -2.02745838      -4.05584401       2.03788687       0.00053200      -0.00049500       0.00210800 
      46      -0.00000053      -2.02810705       2.03773809       0.00041200      -0.00054900       0.00197600 
      46      -4.05491650      -2.02810671       2.03773832       0.00040600      -0.00052600       0.00231000 
      46      -2.02745865      -0.00036976       2.03758954       0.00067000      -0.00041900       0.00203300 
      46      -0.00000415      -6.08343372       6.05385552       0.00050000      -0.00365900      -0.00557900 
      46      -4.05492012      -6.08343338       6.05385576      -0.00919200      -0.00059400       0.00670200 
      46      -2.02746227      -4.05569642       6.05370697      -0.00943500      -0.00059000      -0.01188500 
      46      -0.00000442      -2.02795947       6.05355819       0.00047100      -0.00367600       0.00063200 
      46      -4.05492039      -2.02795913       6.05355842      -0.00055500      -0.00065700      -0.00268000 
      46      -2.02746254      -0.00022217       6.05340964      -0.00057800      -0.00069400      -0.00217900 
      47      -0.00949235      -4.05889910       8.04674401       0.05939600       0.02013300      -0.00014100 
      47      -4.05492162      -4.05573609       8.04674401      -0.01081600      -0.01075800      -0.00020000 
      47      -2.02746377      -2.02799913       8.04659523      -0.00448100       0.00697900      -0.00025900 
      47      -0.00000592      -0.00026218       8.04644644       0.00067600       0.00005800      -0.00025300 
      47      -4.05492189      -0.00026184       8.04644668      -0.00442800       0.00684700      -0.00032000 
      47      -2.02746350      -6.08347338       8.04689256      -0.01125300      -0.01127000      -0.00037400 
      47       0.00000097      -4.05580450       0.04485246      -0.00080300       0.00024700       0.00029100 
      47      -4.05491500      -4.05580416       0.04485269      -0.00073700       0.00027000       0.00023800 
      47      -2.02745715      -2.02806721       0.04470391       0.00042400      -0.00157000       0.00246600 
      47       0.00000070      -0.00033025       0.04455512      -0.00631100       0.00044700      -0.00605900 
      47      -4.05491473      -8.11127841       0.04515003      -0.00645700       0.00046000       0.00682300 
      47      -2.02745688      -6.08354145       0.04500124       0.00042100      -0.00157000      -0.00197800 
      47      -0.00000235      -4.05577049       4.04579467       0.00036400       0.00056400       0.00036200 
      47      -4.05491831      -4.05577015       4.04579491      -0.00021200       0.00045400       0.00016600 
      47      -2.02746046      -2.02803319       4.04564612       0.00005300       0.00044800       0.00028400 
      47      -0.00000262      -0.00029624       4.04549733       0.00026300       0.00028100       0.00035000 
      47      -4.05491804      -8.11124440       4.04609224       0.00006300       0.00046600       0.00038500 
      47      -2.02746019      -6.08350744       4.04594346      -0.00020800       0.00042900       0.00058900 
30
Lattice="-6.082373815943845 -2.027736605773601 0.0001490213928879 5.393537443e-07 -8.110948499418626 0.0005946714586182 2.0274511867991376 4.054733598838928 10.113451463639969" Properties=Z:I:1:pos:R:3:vasp_force:R:3 uuid=aec95512-a826-419c-bc3d-2117ae30e8e5 vasp_virial="-0.06801413366818539 0.04817356381470511 0.10199005849968276 0.04817356381470511 -0.02092742574405704 -0.049855231954852565 0.10199005849968276 -0.049855231954852565 0.0723459862291948" vasp_energy=-112.90125489 pbc="T T T"
      46      -0.00000026      -6.08358130       2.03803542       0.00049600      -0.00046200       0.00220600 
      46      -4.05491623      -6.08358096       2.03803566       0.00053300      -0.00053600       0.00201800 
      46      -2.02745838      -4.05584401       2.03788687       0.00039100      -0.00053200       0.00210200 
      46      -0.00000053      -2.02810705       2.03773809       0.00051000      -0.00047800       0.00223000 
      46      -4.05491650      -2.02810671       2.03773832       0.00052000      -0.00050100       0.00190000 
      46      -2.02745865      -0.00036976       2.03758954       0.00025400      -0.00060800       0.00216600 
      46      -0.00000415      -6.08343372       6.05385552      -0.00139200       0.00215200       0.00068600 
      46      -4.05492012      -6.08343338       6.05385576       0.00851800      -0.00095000      -0.01192800 
      46      -2.02746227      -4.05569642       6.05370697       0.00827300      -0.00090100       0.00665800 
      46      -0.00000442      -2.02795947       6.05355819      -0.00141700       0.00215000      -0.00552500 
      46      -4.05492039      -2.02795913       6.05355842      -0.00036300      -0.00085900      -0.00220700 
      46      -2.02746254      -0.00022217       6.05340964      -0.00034200      -0.00082600      -0.00270700 
      47       0.00948105      -4.05257376       8.04674354      -0.05799900      -0.01890700      -0.00006900 
      47      -4.05492162      -4.05573609       8.04674401       0.01195800       0.01231000      -0.00035000 
      47      -2.02746377      -2.02799913       8.04659523       0.00513500      -0.00581100      -0.00028500 
      47      -0.00000592      -0.00026218       8.04644644       0.00003100       0.00097900      -0.00029300 
      47      -4.05492189      -0.00026184       8.04644668       0.00518700      -0.00594100      -0.00022800 
      47      -2.02746350      -6.08347338       8.04689256       0.01152400       0.01179100      -0.00017500 
      47       0.00000097      -4.05580450       0.04485246      -0.00018500       0.00033900       0.00021200 
      47      -4.05491500      -4.05580416       0.04485269      -0.00024800       0.00031400       0.00026500 
      47      -2.02745715      -2.02806721       0.04470391      -0.00138600       0.00215800      -0.00195800 
      47       0.00000070      -0.00033025       0.04455512       0.00547800       0.00011400       0.00679000 
      47      -4.05491473      -8.11127841       0.04515003       0.00531700       0.00014800      -0.00609300 
      47      -2.02745688      -6.08354145       0.04500124      -0.00143300       0.00215100       0.00248600 
      47      -0.00000235      -4.05577049       4.04579467      -0.00020300       0.00032800       0.00034600 
      47      -4.05491831      -4.05577015       4.04579491       0.00036700       0.00044000       0.00053700 
      47      -2.02746046      -2.02803319       4.04564612       0.00010900       0.00044300       0.00042500 
      47      -0.00000262      -0.00029624       4.04549733      -0.00010100       0.00061000       0.00035800 
      47      -4.05491804      -8.11124440       4.04609224       0.00009600       0.00042500       0.00032300 
      47      -2.02746019      -6.08350744       4.04594346       0.00037400       0.00046000       0.00011500 
30
Lattice="-6.082373815943845 -2.027736605773601 0.0001490213928879 5.393537443e-07 -8.110948499418626 0.0005946714586182 2.0274511867991376 4.054733598838928 10.113451463639969" Properties=Z:I:1:pos:R:3:vasp_force:R:3 uuid=5db4ed90-563d-4a97-b18d-d60e93a35a7b vasp_virial="-0.06763420123652245 0.04778740298252311 0.11260948138468788 0.04778740298252311 -0.021920855626847844 -0.035069009122593205 0.11260948138468788 -0.035069009122593205 0.07242072703542358" vasp_energy=-112.9012508 pbc="T T T"
      46      -0.00000026      -6.08358130       2.03803542       0.00044600      -0.00060000       0.00210600 
      46      -4.05491623      -6.08358096       2.03803566       0.00047300      -0.00047900       0.00202000 
      46      -2.02745838      -4.05584401       2.03788687       0.00041500      -0.00030100       0.00210900 
      46      -0.00000053      -2.02810705       2.03773809       0.00048100      -0.00061900       0.00213600 
      46      -4.05491650      -2.02810671       2.03773832       0.00046200      -0.00051700       0.00220300 
      46      -2.02745865      -0.00036976       2.03758954       0.00051900      -0.00031600       0.00210700 
      46      -0.00000415      -6.08343372       6.05385552      -0.00044100      -0.01004700      -0.01252300 
      46      -4.05492012      -6.08343338       6.05385576      -0.00053900       0.00019500      -0.00237400 
      46      -2.02746227      -4.05569642       6.05370697      -0.00051800       0.00020300      -0.00246300 
      46      -0.00000442      -2.02795947       6.05355819      -0.00045100      -0.00978100       0.00725400 
      46      -4.05492039      -2.02795913       6.05355842      -0.00037200      -0.00089900      -0.00248800 
      46      -2.02746254      -0.00022217       6.05340964      -0.00039400      -0.00095200      -0.00236900 
      47      -0.00000565      -4.06573643       8.04674451       0.00061700       0.06154200      -0.00036900 
      47      -4.05492162      -4.05573609       8.04674401      -0.00894700      -0.00738500      -0.00021400 
      47      -2.02746377      -2.02799913       8.04659523       0.00966600      -0.00753000      -0.00019700 
      47      -0.00000592      -0.00026218       8.04644644       0.00028300      -0.00069100      -0.00025000 
      47      -4.05492189      -0.00026184       8.04644668       0.00999200      -0.00776400      -0.00031100 
      47      -2.02746350      -6.08347338       8.04689256      -0.00928500      -0.00761800      -0.00031100 
      47       0.00000097      -4.05580450       0.04485246      -0.00036700      -0.00019800       0.00019900 
      47      -4.05491500      -4.05580416       0.04485269      -0.00034600      -0.00018200       0.00032200 
      47      -2.02745715      -2.02806721       0.04470391      -0.00049300      -0.00565300       0.00736600 
      47       0.00000070      -0.00033025       0.04455512      -0.00062400       0.00121100       0.00032500 
      47      -4.05491473      -8.11127841       0.04515003      -0.00060700       0.00119400       0.00018600 
      47      -2.02745688      -6.08354145       0.04500124      -0.00048700      -0.00549000      -0.00662800 
      47      -0.00000235      -4.05577049       4.04579467       0.00009000       0.00076300       0.00036500 
      47      -4.05491831      -4.05577015       4.04579491       0.00004900       0.00053900       0.00044900 
      47      -2.02746046      -2.02803319       4.04564612       0.00012100       0.00038100       0.00041700 
      47      -0.00000262      -0.00029624       4.04549733       0.00010100       0.00000900       0.00034500 
      47      -4.05491804      -8.11124440       4.04609224       0.00011400       0.00050000       0.00027500 
      47      -2.02746019      -6.08350744       4.04594346       0.00004300       0.00048500       0.00031500 
30
Lattice="-6.082373815943845 -2.027736605773601 0.0001490213928879 5.393537443e-07 -8.110948499418626 0.0005946714586182 2.0274511867991376 4.054733598838928 10.113451463639969" Properties=Z:I:1:pos:R:3:vasp_force:R:3 uuid=22aa6854-1b11-42de-acec-1030ccc097fc vasp_virial="-0.06843455070322224 0.048114394009774 0.11266242278909994 0.048114394009774 -0.020700089125111183 -0.0577372728117288 0.11266242278909994 -0.0577372728117288 0.07298751148265846" vasp_energy=-112.90125511 pbc="T T T"
      46      -0.00000026      -6.08358130       2.03803542       0.00048400      -0.00038500       0.00210900 
      46      -4.05491623      -6.08358096       2.03803566       0.00046200      -0.00050600       0.00219100 
      46      -2.02745838      -4.05584401       2.03788687       0.00051800      -0.00068400       0.00211100 
      46      -0.00000053      -2.02810705       2.03773809       0.00045000      -0.00036400       0.00207700 
      46      -4.05491650      -2.02810671       2.03773832       0.00047400      -0.00046700       0.00201100 
      46      -2.02745865      -0.00036976       2.03758954       0.00041400      -0.00066800       0.00209900 
      46      -0.00000415      -6.08343372       6.05385552      -0.00046600       0.00829400       0.00725900 
      46      -4.05492012      -6.08343338       6.05385576      -0.00041100      -0.00167000      -0.00247300 
      46      -2.02746227      -4.05569642       6.05370697      -0.00035000      -0.00167700      -0.00238300 
      46      -0.00000442      -2.02795947       6.05355819      -0.00045800       0.00858300      -0.01251700 
      46      -4.05492039      -2.02795913       6.05355842      -0.00053700      -0.00057500      -0.00239500 
      46      -2.02746254      -0.00022217       6.05340964      -0.00051500      -0.00052400      -0.00251300 
      47      -0.00000565      -4.04573643       8.04674304       0.00049000      -0.06154800      -0.00002000 
      47      -4.05492162      -4.05573609       8.04674401       0.00999800       0.00869700      -0.00032700 
      47      -2.02746377      -2.02799913       8.04659523      -0.00927500       0.00884300      -0.00034100 
      47      -0.00000592      -0.00026218       8.04644644       0.00043400       0.00177100      -0.00028300 
      47      -4.05492189      -0.00026184       8.04644668      -0.00895000       0.00860900      -0.00023000 
      47      -2.02746350      -6.08347338       8.04689256       0.00966800       0.00846500      -0.00022700 
      47       0.00000097      -4.05580450       0.04485246      -0.00061000       0.00082400       0.00030900 
      47      -4.05491500      -4.05580416       0.04485269      -0.00063000       0.00081000       0.00018600 
      47      -2.02745715      -2.02806721       0.04470391      -0.00048300       0.00610700      -0.00660600 
      47       0.00000070      -0.00033025       0.04455512      -0.00037600      -0.00058400       0.00016100 