  30
   1   1
     6.415881811147468    -0.156561706930064    -0.049977168426306
    -0.148532256378483     6.390478494405825     0.035731614804248
    -0.077706021289280     0.015297689200779     6.845403191122942
   1   2
    -0.759422929605072    -0.792132149476293    -0.022122071096233
    -0.769679379873926    -0.748752408982962    -0.008606238210811
     0.018651834641052     0.027064822831334    -0.021525680410502
   1   3
    -0.759467150092785    -0.769169786878428     0.017762137994863
    -0.792713120133902    -0.748724425191467     0.026450062144298
    -0.021202772519186    -0.008007516472136    -0.021561562279938
   1   4
    -0.051982750072499     0.027927843385704    -0.053884521251657
     0.027694983998027    -0.008403022197066     0.004914607302729
    -0.052791670306182     0.005533111167567    -0.045126352891409
   1   5
    -0.002193035339503     0.013457313947894     0.005107894354925
     0.010653070890707    -0.025773907172171     0.018521301397604
     0.003807540385847     0.021338694018948    -0.023672885439911
   1   6
    -0.002187507348828     0.010916111693877     0.002823422220285
     0.013215320341124    -0.025799634695028     0.020707430540628
     0.006148916207036     0.019199338599263    -0.023682139617187
   1   7
    -0.008247284011335    -0.003629337702410    -0.017082003221068
    -0.003912389369160    -0.015092749426071    -0.006967932957693
    -0.016057124345114    -0.006302861076342    -0.008503521990819
   1   8
     0.020780162738068     0.005311981112803    -0.010431229937976
     0.005145897612440     0.015773628352159     0.012524335026266
    -0.009456212073317     0.013276619056023    -0.058613407371574
   1   9
    -0.008720592901110     0.023053065619283     0.007823773875006
     0.022764973072634     0.007860285085940     0.013919969170975
     0.008747502378894     0.014623690115136     0.001251368809954
   1  10
    -0.036206938779323    -0.020375311412909     0.005879446159350
    -0.020635665065015    -0.053048532202537    -0.030555210173086
     0.006805983514985    -0.029814659127414    -0.001783996956429
   1  11
    -0.961089534954008     0.010984845089940     1.018153732162243
     0.010988852993031    -0.034836003810539    -0.021628302176948
     1.018885739269532    -0.020565692924229    -0.936171329290209
   1  12
    -0.028222194407513    -0.006902915907424     0.029958497376003
    -0.007139639097445    -0.935536776807211    -1.010162596999332
     0.030900830897447    -1.009348317826487    -0.943313454663412
   1  13
    -0.730800530437638    -0.014268554848912    -0.852250562513420
    -0.020817390113808     0.080979317373311    -0.019550920762677
    -0.840625339595509    -0.011140211260485    -0.761664386225035
   1  14
     0.073967985350920    -0.018631514286510     0.020790768145864
    -0.010437115594721    -0.746828558667680     0.861137511269481
     0.010443840291029     0.853546500251040    -0.781863008362515
   1  15
    -0.012201644503842    -0.011488893595680    -0.016658039581923
    -0.013437851997517    -0.008605689449520     0.019040735671344
    -0.011110040279784     0.012608021193278     0.010314023192946
   1  16
    -0.682017248562398     0.740871645905774     0.056904371011821
     0.726451935830689    -0.636199019708321    -0.003116778118108
     0.054495799128146    -0.019947086740836     0.057857989382392
   1  17
    -0.028843658588632     0.006513162348996     0.016361562895410
    -0.007764293898214     0.002602345653802    -0.016301099070894
     0.007681250479359    -0.005155073182247     0.013101967252216
   1  18
     0.018858335242990    -0.017985727369768    -0.011284069180633
     0.009309807884609    -0.055577063149645    -0.043023722296516
    -0.005464533735235    -0.027457622189368     0.000173100892361
   1  19
     0.074637765483642     0.000788422998282     0.003232546067764
     0.000775658208894    -0.911132902389657     0.962171553827246
     0.003897174835250     1.009732528735868    -0.889971803356823
   1  20
    -0.892070514431097     0.003544774010012    -0.958176250504168
     0.002368158836744     0.083139229907769     0.003742323104900
    -0.999014237793957    -0.003180610983148    -0.870757806519653
   1  21
    -0.006408550015099    -0.014889231276532    -0.013927353364545
    -0.016182570623218    -0.002559838576827     0.014180717488848
    -0.006775208488157     0.008672338695916     0.005527326293647
   1  22
    -0.068973634805735     0.009579485865142     0.002553761824215
    -0.012172672006852     0.006984949755284    -0.016444680356772
     0.018709155388319    -0.006093247418129    -0.003053840898581
   1  23
    -0.857214181221834     0.975138593652882    -0.010272172525999
     0.967736723427688    -0.856497024259775     0.019627454362923
    -0.003139623818488     0.008049280385084     0.095156363256222
   1  24
     0.018010060443850    -0.013931358141688    -0.004326815954239
     0.015101178560799    -0.051840010836542     0.005929993390977
    -0.002289296597951    -0.012748208527734     0.028207668260032
   1  25
     0.071202091720278    -0.004047225109594     0.006127993910561
    -0.004131352074250    -0.772978274202918    -0.838660966943713
     0.008231632982346    -0.855621204692961    -0.791905094709733
   1  26
    -0.787617626245867    -0.003124022422089     0.843593600035023
     0.007468833475970     0.065670028887443    -0.002162787730422
     0.867941912573018     0.002716371743032    -0.789311133313369
   1  27
    -0.021400731025274     0.003389311407227    -0.003342037843154
    -0.005761704824994    -0.026785899414506    -0.008055383343844
     0.001247686094822    -0.021754749801956    -0.015858189721667
   1  28
     0.000718356867183     0.013025545043511     0.002199398253180
     0.007240954730175     0.009996817785374     0.009285959350000
     0.003815884296205     0.006370193463108     0.003426469896331
   1  29
     0.011478405715656     0.000408510271746    -0.006087560253815
     0.001495352379952     0.010069260491007     0.004091863089392
    -0.016744463052874     0.020986024476111    -0.065725557195958
   1  30
    -0.000246263509456     0.002228083106950    -0.009449828592900
     0.004906638929765    -0.008583577565016    -0.006740621412269
    -0.008034962800070    -0.001878111437796    -0.006353514512305
   2   1
    -0.759467150092785    -0.769169786878428     0.017762137994863
    -0.792713120133902    -0.748724425191467     0.026450062144298
    -0.021202772519186    -0.008007516472136    -0.021561562279938
   2   2
     6.415881811147466    -0.156561706930064    -0.049977168426307
    -0.148532256378484     6.390478494405824     0.035731614804249
    -0.077706021289281     0.015297689200779     6.845403191122942
   2   3
    -0.759422929605072    -0.792132149476293    -0.022122071096233
    -0.769679379873926    -0.748752408982961    -0.008606238210811
     0.018651834641052     0.027064822831335    -0.021525680410502
   2   4
    -0.002187507348828     0.010916111693877     0.002823422220285
     0.013215320341124    -0.025799634695028     0.020707430540628
     0.006148916207036     0.019199338599263    -0.023682139617187
   2   5
    -0.051982750072499     0.027927843385704    -0.053884521251657
     0.027694983998027    -0.008403022197066     0.004914607302729
    -0.052791670306182     0.005533111167567    -0.045126352891409
   2   6
    -0.002193035339503     0.013457313947894     0.005107894354925
     0.010653070890707    -0.025773907172171     0.018521301397604
     0.003807540385847     0.021338694018948    -0.023672885439911
   2   7
    -0.008720592901110     0.023053065619283     0.007823773875006
     0.022764973072634     0.007860285085940     0.013919969170975
     0.008747502378894     0.014623690115136     0.001251368809954
   2   8
    -0.008247284011335    -0.003629337702410    -0.017082003221068
    -0.003912389369160    -0.015092749426071    -0.006967932957693
    -0.016057124345114    -0.006302861076342    -0.008503521990819
   2   9
     0.020780162738068     0.005311981112803    -0.010431229937976
     0.005145897612440     0.015773628352159     0.012524335026266
    -0.009456212073317     0.013276619056023    -0.058613407371574
   2  10
    -0.028222194407513    -0.006902915907424     0.029958497376003
    -0.007139639097445    -0.935536776807211    -1.010162596999332
     0.030900830897447    -1.009348317826487    -0.943313454663412
   2  11
    -0.036206938779323    -0.020375311412909     0.005879446159350
    -0.020635665065015    -0.053048532202537    -0.030555210173086
     0.006805983514985    -0.029814659127414    -0.001783996956429
   2  12
    -0.961089534954008     0.010984845089940     1.018153732162243
     0.010988852993031    -0.034836003810539    -0.021628302176948
     1.018885739269531    -0.020565692924229    -0.936171329290209
   2  13
    -0.012201644503842    -0.011488893595680    -0.016658039581923
    -0.013437851997517    -0.008605689449519     0.019040735671344
    -0.011110040279784     0.012608021193278     0.010314023192946
   2  14
    -0.730800530437638    -0.014268554848912    -0.852250562513420
    -0.020817390113808     0.080979317373311    -0.019550920762677
    -0.840625339595509    -0.011140211260485    -0.761664386225035
   2  15
     0.073967985350920    -0.018631514286510     0.020790768145864
    -0.010437115594721    -0.746828558667680     0.861137511269480
     0.010443840291029     0.853546500251040    -0.781863008362515
   2  16
     0.018858335242990    -0.017985727369768    -0.011284069180633
     0.009309807884609    -0.055577063149645    -0.043023722296516
    -0.005464533735235    -0.027457622189368     0.000173100892361
   2  17
    -0.682017248562398     0.740871645905774     0.056904371011821
     0.726451935830689    -0.636199019708321    -0.003116778118108
     0.054495799128147    -0.019947086740836     0.057857989382392
   2  18
    -0.028843658588632     0.006513162348996     0.016361562895410
    -0.007764293898214     0.002602345653802    -0.016301099070894
     0.007681250479359    -0.005155073182247     0.013101967252216
   2  19
    -0.006408550015099    -0.014889231276532    -0.013927353364545
    -0.016182570623218    -0.002559838576827     0.014180717488848
    -0.006775208488157     0.008672338695916     0.005527326293647
   2  20
     0.074637765483642     0.000788422998282     0.003232546067764
     0.000775658208894    -0.911132902389657     0.962171553827246
     0.003897174835250     1.009732528735868    -0.889971803356823
   2  21
    -0.892070514431097     0.003544774010012    -0.958176250504167
     0.002368158836744     0.083139229907769     0.003742323104900
    -0.999014237793957    -0.003180610983148    -0.870757806519653
   2  22
     0.018010060443850    -0.013931358141688    -0.004326815954239
     0.015101178560799    -0.051840010836542     0.005929993390977
    -0.002289296597951    -0.012748208527734     0.028207668260032
   2  23
    -0.068973634805735     0.009579485865142     0.002553761824215
    -0.012172672006852     0.006984949755284    -0.016444680356772
     0.018709155388319    -0.006093247418129    -0.003053840898581
   2  24
    -0.857214181221834     0.975138593652881    -0.010272172525999
     0.967736723427688    -0.856497024259775     0.019627454362923
    -0.003139623818488     0.008049280385084     0.095156363256222
   2  25
    -0.021400731025274     0.003389311407227    -0.003342037843154
    -0.005761704824994    -0.026785899414506    -0.008055383343844
     0.001247686094822    -0.021754749801956    -0.015858189721667
   2  26
     0.071202091720278    -0.004047225109594     0.006127993910561
    -0.004131352074250    -0.772978274202918    -0.838660966943713
     0.008231632982346    -0.855621204692961    -0.791905094709733
   2  27
    -0.787617626245867    -0.003124022422089     0.843593600035023
     0.007468833475970     0.065670028887443    -0.002162787730422
     0.867941912573018     0.002716371743032    -0.789311133313369
   2  28
    -0.000246263509456     0.002228083106950    -0.009449828592900
     0.004906638929765    -0.008583577565016    -0.006740621412269
    -0.008034962800070    -0.001878111437796    -0.006353514512305
   2  29
     0.000718356867183     0.013025545043511     0.002199398253180
     0.007240954730175     0.009996817785374     0.009285959350000
     0.003815884296205     0.006370193463108     0.003426469896331
   2  30
     0.011478405715656     0.000408510271746    -0.006087560253815
     0.001495352379952     0.010069260491007     0.004091863089392
    -0.016744463052874     0.020986024476111    -0.065725557195958
   3   1
    -0.759422929605072    -0.792132149476293    -0.022122071096233
    -0.769679379873926    -0.748752408982961    -0.008606238210811
     0.018651834641052     0.027064822831335    -0.021525680410502
   3   2
    -0.759467150092785    -0.769169786878428     0.017762137994863
    -0.792713120133902    -0.748724425191467     0.026450062144298
    -0.021202772519186    -0.008007516472136    -0.021561562279938
   3   3
     6.415881811147466    -0.156561706930064    -0.049977168426307
    -0.148532256378484     6.390478494405824     0.035731614804249
    -0.077706021289281     0.015297689200779     6.845403191122942
   3   4
    -0.002193035339503     0.013457313947894     0.005107894354925
     0.010653070890707    -0.025773907172171     0.018521301397604
     0.003807540385847     0.021338694018948    -0.023672885439911
   3   5
    -0.002187507348828     0.010916111693877     0.002823422220285
     0.013215320341124    -0.025799634695028     0.020707430540628
     0.006148916207036     0.019199338599263    -0.023682139617187
   3   6
    -0.051982750072499     0.027927843385704    -0.053884521251657
     0.027694983998027    -0.008403022197066     0.004914607302729
    -0.052791670306182     0.005533111167567    -0.045126352891409
   3   7
     0.020780162738068     0.005311981112803    -0.010431229937976
     0.005145897612440     0.015773628352159     0.012524335026266
    -0.009456212073317     0.013276619056023    -0.058613407371574
   3   8
    -0.008720592901110     0.023053065619283     0.007823773875006
     0.022764973072634     0.007860285085940     0.013919969170975
     0.008747502378894     0.014623690115136     0.001251368809954
   3   9
    -0.008247284011335    -0.003629337702410    -0.017082003221068
    -0.003912389369160    -0.015092749426071    -0.006967932957693
    -0.016057124345114    -0.006302861076342    -0.008503521990819
   3  10
    -0.961089534954008     0.010984845089940     1.018153732162243
     0.010988852993031    -0.034836003810539    -0.021628302176948
     1.018885739269531    -0.020565692924229    -0.936171329290209
   3  11
    -0.028222194407513    -0.006902915907424     0.029958497376003
    -0.007139639097445    -0.935536776807211    -1.010162596999332
     0.030900830897447    -1.009348317826487    -0.943313454663412
   3  12
    -0.036206938779323    -0.020375311412909     0.005879446159350
    -0.020635665065015    -0.053048532202537    -0.030555210173086
     0.006805983514985    -0.029814659127414    -0.001783996956429
   3  13
     0.073967985350920    -0.018631514286510     0.020790768145864
    -0.010437115594721    -0.746828558667680     0.861137511269480
     0.010443840291029     0.853546500251040    -0.781863008362515
   3  14
    -0.012201644503842    -0.011488893595680    -0.016658039581923
    -0.013437851997517    -0.008605689449519     0.019040735671344
    -0.011110040279784     0.012608021193278     0.010314023192946
   3  15
    -0.730800530437638    -0.014268554848912    -0.852250562513420
    -0.020817390113808     0.080979317373311    -0.019550920762677
    -0.840625339595509    -0.011140211260485    -0.761664386225035
   3  16
    -0.028843658588632     0.006513162348996     0.016361562895410
    -0.007764293898214     0.002602345653802    -0.016301099070894
     0.007681250479359    -0.005155073182247     0.013101967252216
   3  17
     0.018858335242990    -0.017985727369768    -0.011284069180633
     0.009309807884609    -0.055577063149645    -0.043023722296516
    -0.005464533735235    -0.027457622189368     0.000173100892361
   3  18
    -0.682017248562398     0.740871645905774     0.056904371011821
     0.726451935830689    -0.636199019708321    -0.003116778118108
     0.054495799128147    -0.019947086740836     0.057857989382392
   3  19
    -0.892070514431097     0.003544774010012    -0.958176250504167
     0.002368158836744     0.083139229907769     0.003742323104900
    -0.999014237793957    -0.003180610983148    -0.870757806519653
   3  20
    -0.006408550015099    -0.014889231276532    -0.013927353364545
    -0.016182570623218    -0.002559838576827     0.014180717488848
    -0.006775208488157     0.008672338695916     0.005527326293647
   3  21
     0.074637765483642     0.000788422998282     0.003232546067764
     0.000775658208894    -0.911132902389657     0.962171553827246
     0.003897174835250     1.009732528735868    -0.889971803356823
   3  22
    -0.857214181221834     0.975138593652881    -0.010272172525999
     0.967736723427688    -0.856497024259775     0.019627454362923
    -0.003139623818488     0.008049280385084     0.095156363256222
   3  23
     0.018010060443850    -0.013931358141688    -0.004326815954239
     0.015101178560799    -0.051840010836542     0.005929993390977
    -0.002289296597951    -0.012748208527734     0.028207668260032
   3  24
    -0.068973634805735     0.009579485865142     0.002553761824215
    -0.012172672006852     0.006984949755284    -0.016444680356772
     0.018709155388319    -0.006093247418129    -0.003053840898581
   3  25
    -0.787617626245867    -0.003124022422089     0.843593600035023
     0.007468833475970     0.065670028887443    -0.002162787730422
     0.867941912573018     0.002716371743032    -0.789311133313369
   3  26
    -0.021400731025274     0.003389311407227    -0.003342037843154
    -0.005761704824994    -0.026785899414506    -0.008055383343844
     0.001247686094822    -0.021754749801956    -0.015858189721667
   3  27
     0.071202091720278    -0.004047225109594     0.006127993910561
    -0.004131352074250    -0.772978274202918    -0.838660966943713
     0.008231632982346    -0.855621204692961    -0.791905094709733
   3  28
     0.011478405715656     0.000408510271746    -0.006087560253815
     0.001495352379952     0.010069260491007     0.004091863089392
    -0.016744463052874     0.020986024476111    -0.065725557195958
   3  29
    -0.000246263509456     0.002228083106950    -0.009449828592900
     0.004906638929765    -0.008583577565016    -0.006740621412269
    -0.008034962800070    -0.001878111437796    -0.006353514512305
   3  30
     0.000718356867183     0.013025545043511     0.002199398253180
     0.007240954730175     0.009996817785374     0.009285959350000
     0.003815884296205     0.006370193463108     0.003426469896331
   4   1
    -0.051982750072499     0.027927843385704    -0.053884521251657
     0.027694983998027    -0.008403022197066     0.004914607302729
    -0.052791670306182     0.005533111167567    -0.045126352891409
   4   2
    -0.002193035339503     0.013457313947894     0.005107894354925
     0.010653070890707    -0.025773907172171     0.018521301397604
     0.003807540385847     0.021338694018948    -0.023672885439911
   4   3
    -0.002187507348828     0.010916111693877     0.002823422220285
     0.013215320341124    -0.025799634695028     0.020707430540628
     0.006148916207036     0.019199338599263    -0.023682139617187
   4   4
     6.415881811147466    -0.156561706930064    -0.049977168426307
    -0.148532256378484     6.390478494405824     0.035731614804249
    -0.077706021289281     0.015297689200779     6.845403191122942
   4   5
    -0.759422929605072    -0.792132149476293    -0.022122071096233
    -0.769679379873926    -0.748752408982961    -0.008606238210811
     0.018651834641052     0.027064822831335    -0.021525680410502
   4   6
    -0.759467150092785    -0.769169786878428     0.017762137994863
    -0.792713120133902    -0.748724425191467     0.026450062144298
    -0.021202772519186    -0.008007516472136    -0.021561562279938
   4   7
    -0.036206938779323    -0.020375311412909     0.005879446159350
    -0.020635665065015    -0.053048532202537    -0.030555210173086
     0.006805983514985    -0.029814659127414    -0.001783996956429
   4   8
    -0.961089534954008     0.010984845089940     1.018153732162243
     0.010988852993031    -0.034836003810539    -0.021628302176948
     1.018885739269531    -0.020565692924229    -0.936171329290209
   4   9
    -0.028222194407513    -0.006902915907424     0.029958497376003
    -0.007139639097445    -0.935536776807211    -1.010162596999332
     0.030900830897447    -1.009348317826487    -0.943313454663412
   4  10
    -0.008247284011335    -0.003629337702410    -0.017082003221068
    -0.003912389369160    -0.015092749426071    -0.006967932957693
    -0.016057124345114    -0.006302861076342    -0.008503521990819
   4  11
     0.020780162738068     0.005311981112803    -0.010431229937976
     0.005145897612440     0.015773628352159     0.012524335026266
    -0.009456212073317     0.013276619056023    -0.058613407371574
   4  12
    -0.008720592901110     0.023053065619283     0.007823773875006
     0.022764973072634     0.007860285085940     0.013919969170975
     0.008747502378894     0.014623690115136     0.001251368809954
   4  13
    -0.682017248562398     0.740871645905774     0.056904371011821
     0.726451935830689    -0.636199019708321    -0.003116778118108
     0.054495799128147    -0.019947086740836     0.057857989382392
   4  14
    -0.028843658588632     0.006513162348996     0.016361562895410
    -0.007764293898214     0.002602345653802    -0.016301099070894
     0.007681250479359    -0.005155073182247     0.013101967252216
   4  15
     0.018858335242990    -0.017985727369768    -0.011284069180633
     0.009309807884609    -0.055577063149645    -0.043023722296516
    -0.005464533735235    -0.027457622189368     0.000173100892361
   4  16
    -0.730800530437638    -0.014268554848912    -0.852250562513420
    -0.020817390113808     0.080979317373311    -0.019550920762677
    -0.840625339595509    -0.011140211260485    -0.761664386225035
   4  17
     0.073967985350920    -0.018631514286510     0.020790768145864
    -0.010437115594721    -0.746828558667680     0.861137511269480
     0.010443840291029     0.853546500251040    -0.781863008362515
   4  18
    -0.012201644503842    -0.011488893595680    -0.016658039581923
    -0.013437851997517    -0.008605689449519     0.019040735671344
    -0.011110040279784     0.012608021193278     0.010314023192946
   4  19
    -0.068973634805735     0.009579485865142     0.002553761824215
    -0.012172672006852     0.006984949755284    -0.016444680356772
     0.018709155388319    -0.006093247418129    -0.003053840898581
   4  20
    -0.857214181221834     0.975138593652881    -0.010272172525999
     0.967736723427688    -0.856497024259775     0.019627454362923
    -0.003139623818488     0.008049280385084     0.095156363256222
   4  21
     0.018010060443850    -0.013931358141688    -0.004326815954239
     0.015101178560799    -0.051840010836542     0.005929993390977
    -0.002289296597951    -0.012748208527734     0.028207668260032
   4  22
     0.074637765483642     0.000788422998282     0.003232546067764
     0.000775658208894    -0.911132902389657     0.962171553827246
     0.003897174835250     1.009732528735868    -0.889971803356823
   4  23
    -0.892070514431097     0.003544774010012    -0.958176250504167
     0.002368158836744     0.083139229907769     0.003742323104900
    -0.999014237793957    -0.003180610983148    -0.870757806519653
   4  24
    -0.006408550015099    -0.014889231276532    -0.013927353364545
    -0.016182570623218    -0.002559838576827     0.014180717488848
    -0.006775208488157     0.008672338695916     0.005527326293647
   4  25
     0.000718356867183     0.013025545043511     0.002199398253180
     0.007240954730175     0.009996817785374     0.009285959350000
     0.003815884296205     0.006370193463108     0.003426469896331
   4  26
     0.011478405715656     0.000408510271746    -0.006087560253815
     0.001495352379952     0.010069260491007     0.004091863089392
    -0.016744463052874     0.020986024476111    -0.065725557195958
   4  27
    -0.000246263509456     0.002228083106950    -0.009449828592900
     0.004906638929765    -0.008583577565016    -0.006740621412269
    -0.008034962800070    -0.001878111437796    -0.006353514512305
   4  28
     0.071202091720278    -0.004047225109594     0.006127993910561
    -0.004131352074250    -0.772978274202918    -0.838660966943713
     0.008231632982346    -0.855621204692961    -0.791905094709733
   4  29
    -0.787617626245867    -0.003124022422089     0.843593600035023
     0.007468833475970     0.065670028887443    -0.002162787730422
     0.867941912573018     0.002716371743032    -0.789311133313369
   4  30
    -0.021400731025274     0.003389311407227    -0.003342037843154
    -0.005761704824994    -0.026785899414506    -0.008055383343844
     0.001247686094822    -0.021754749801956    -0.015858189721667
   5   1
    -0.002187507348828     0.010916111693877     0.002823422220285
     0.013215320341124    -0.025799634695028     0.020707430540628
     0.006148916207036     0.019199338599263    -0.023682139617187
   5   2
    -0.051982750072499     0.027927843385704    -0.053884521251657
     0.027694983998027    -0.008403022197066     0.004914607302729
    -0.052791670306182     0.005533111167567    -0.045126352891409
   5   3
    -0.002193035339503     0.013457313947894     0.005107894354925
     0.010653070890707    -0.025773907172171     0.018521301397604
     0.003807540385847     0.021338694018948    -0.023672885439911
   5   4
    -0.759467150092785    -0.769169786878428     0.017762137994863
    -0.792713120133902    -0.748724425191467     0.026450062144298
    -0.021202772519186    -0.008007516472136    -0.021561562279938
   5   5
     6.415881811147466    -0.156561706930064    -0.049977168426307
    -0.148532256378484     6.390478494405824     0.035731614804249
    -0.077706021289281     0.015297689200779     6.845403191122942
   5   6
    -0.759422929605072    -0.792132149476293    -0.022122071096233
    -0.769679379873926    -0.748752408982961    -0.008606238210811
     0.018651834641052     0.027064822831335    -0.021525680410502
   5   7
    -0.028222194407513    -0.006902915907424     0.029958497376003
    -0.007139639097445    -0.935536776807211    -1.010162596999332
     0.030900830897447    -1.009348317826487    -0.943313454663412
   5   8
    -0.036206938779323    -0.020375311412909     0.005879446159350
    -0.020635665065015    -0.053048532202537    -0.030555210173086
     0.006805983514985    -0.029814659127414    -0.001783996956429
   5   9
    -0.961089534954008     0.010984845089940     1.018153732162243
     0.010988852993031    -0.034836003810539    -0.021628302176948
     1.018885739269531    -0.020565692924229    -0.936171329290209
   5  10
    -0.008720592901110     0.023053065619283     0.007823773875006
     0.022764973072634     0.007860285085940     0.013919969170975
     0.008747502378894     0.014623690115136     0.001251368809954
   5  11
    -0.008247284011335    -0.003629337702410    -0.017082003221068
    -0.003912389369160    -0.015092749426071    -0.006967932957693
    -0.016057124345114    -0.006302861076342    -0.008503521990819
   5  12
     0.020780162738068     0.005311981112803    -0.010431229937976
     0.005145897612440     0.015773628352159     0.012524335026266
    -0.009456212073317     0.013276619056023    -0.058613407371574
   5  13
     0.018858335242990    -0.017985727369768    -0.011284069180633
     0.009309807884609    -0.055577063149645    -0.043023722296516
    -0.005464533735235    -0.027457622189368     0.000173100892361
   5  14
    -0.682017248562398     0.740871645905774     0.056904371011821
     0.726451935830689    -0.636199019708321    -0.003116778118108
     0.054495799128147    -0.019947086740836     0.057857989382392
   5  15
    -0.028843658588632     0.006513162348996     0.016361562895410
    -0.007764293898214     0.002602345653802    -0.016301099070894
     0.007681250479359    -0.005155073182247     0.013101967252216
   5  16
    -0.012201644503842    -0.011488893595680    -0.016658039581923
    -0.013437851997517    -0.008605689449519     0.019040735671344
    -0.011110040279784     0.012608021193278     0.010314023192946
   5  17
    -0.730800530437638    -0.014268554848912    -0.852250562513420
    -0.020817390113808     0.080979317373311    -0.019550920762677
    -0.840625339595509    -0.011140211260485    -0.761664386225035
   5  18
     0.073967985350920    -0.018631514286510     0.020790768145864
    -0.010437115594721    -0.746828558667680     0.861137511269480
     0.010443840291029     0.853546500251040    -0.781863008362515
   5  19
     0.018010060443850    -0.013931358141688    -0.004326815954239
     0.015101178560799    -0.051840010836542     0.005929993390977
    -0.002289296597951    -0.012748208527734     0.028207668260032
   5  20
    -0.068973634805735     0.009579485865142     0.002553761824215
    -0.012172672006852     0.006984949755284    -0.016444680356772
     0.018709155388319    -0.006093247418129    -0.003053840898581
   5  21
    -0.857214181221834     0.975138593652881    -0.010272172525999
     0.967736723427688    -0.856497024259775     0.019627454362923
    -0.003139623818488     0.008049280385084     0.095156363256222
   5  22
    -0.006408550015099    -0.014889231276532    -0.013927353364545
    -0.016182570623218    -0.002559838576827     0.014180717488848
    -0.006775208488157     0.008672338695916     0.005527326293647
   5  23
     0.074637765483642     0.000788422998282     0.003232546067764
     0.000775658208894    -0.911132902389657     0.962171553827246