30
Lattice="0.0010283112102449 -8.09446879260025 0.0013692733790904 2.03407750581212 -2.025259437803122 8.143084349849085 -8.153789874033286 2.0249694649067314 -2.0314709114005236" Properties=Z:I:1:pos:R:3:vasp_force:R:3 uuid=234368cb-7184-47c5-8ea7-1fc6f1df2a10 vasp_virial="-0.06698112300977291 -0.13100858421311318 -0.19726623308499522 -0.13100858421311318 -0.1660813522021696 -0.2552668401657317 -0.19726623308499522 -0.2552668401657317 0.10632238841238535" vasp_energy=-108.34854506 pbc="T T T"
      46      -2.04980031      -0.01040394       2.04751557      -0.00009500       0.06235100       0.00143500 
      46      -0.01181678      -4.04823724       4.08297264      -0.00200700       0.00234800       0.00138100 
      46      -6.12762185      -6.07110107       4.08696049      -0.00173000       0.00318600       0.00169900 
      46      -4.09066536      -2.02446558       6.12104998      -0.00183300       0.00333500       0.00177900 
      46      -4.08675807      -4.04703944       0.01342439      -0.00190800       0.00392700       0.00212500 
      46      -2.03045222      -6.07098876       4.06391144       0.00115100      -0.01129300      -0.00888800 
      46       0.00650426      -2.02435326       6.09800093       0.00178400      -0.00362200      -0.00140900 
      46      -6.10930081      -4.04721710       6.10198878       0.00213900      -0.00388700      -0.00168300 
      46      -6.10539351      -6.06979096      -0.00563681       0.00227100      -0.00232700      -0.00102300 
      46      -4.06843703      -2.02315546       2.02845268      -0.00685200      -0.01047200      -0.00077100 
      47      -4.06541196      -8.09446865       4.06267514      -0.00190500       0.00000900       0.00098200 
      47      -2.02845547      -4.04783315       6.09676463      -0.00122500      -0.00168700       0.00031800 
      47      -2.02454817      -6.07040701      -0.01086096      -0.00154200      -0.00800500       0.00844700 
      47       0.01240831      -2.02377152       2.02322853       0.00704300      -0.00755700       0.00068500 
      47      -6.10339676      -4.04663535       2.02721638      -0.00194900      -0.00054500       0.00055700 
      47      -4.07788090      -6.07137239       6.10951354      -0.00147000       0.00101500       0.00054000 
      47      -4.07500192       0.00052254       0.00051868      -0.00124300       0.00116100       0.00042300 
      47      -2.03701712      -4.04731076       2.03597744      -0.00098400       0.00022400       0.00021000 
      47       0.00096768      -8.09514406       4.07143620      -0.00099400       0.00144600       0.00046300 
      47      -6.11586570      -2.02353910       4.07405478      -0.00162400       0.00035600       0.00054800 
      47      -0.00237283      -0.00002029       0.00191164       0.00086200       0.00008100      -0.00051900 
      47      -6.11817790      -2.02288413       0.00589949       0.00085700      -0.00007200      -0.00109600 
      47      -4.08019310      -6.07071742       2.04135825       0.00955900      -0.00820400      -0.00108600 
      47      -2.04323661      -2.02408193       4.07544774       0.00134200      -0.00947200       0.00837000 
      47      -0.00525181      -6.07191523       6.11090650       0.00152200      -0.00107700      -0.00042500 
      47      -0.01381345      -6.07139282       2.05011929      -0.00663100      -0.00644600      -0.00085700 
      47      -6.13064684       0.00021214       2.05273786       0.00152500       0.00064800      -0.00086400 
      47      -4.09266204      -4.04762116       4.08819663       0.00134800       0.00074900      -0.00066100 
      47      -2.05467723      -8.09545446       6.12365539       0.00143000       0.00144400      -0.00040100 
      47      -2.05179825      -2.02355952       0.01466053       0.00115700      -0.00761400      -0.01027800 
30
Lattice="0.0010283112102449 -8.09446879260025 0.0013692733790904 2.03407750581212 -2.025259437803122 8.143084349849085 -8.153789874033286 2.0249694649067314 -2.0314709114005236" Properties=Z:I:1:pos:R:3:vasp_force:R:3 uuid=4d796d87-f29b-47b0-981b-8525019f16e0 vasp_virial="-0.07098224954628231 -0.13217872499265837 -0.2011037915555467 -0.13217872499265837 -0.17206416876855393 -0.2562828494985088 -0.2011037915555467 -0.2562828494985088 0.1017015905490738" vasp_energy=-108.34858352 pbc="T T T"
      46      -2.04980158      -0.00040394       2.04751388      -0.00132100      -0.00246200      -0.00448000 
      46      -0.01181678      -4.04823724       4.08297264      -0.00234300       0.00228700       0.00125100 
      46      -6.12762185      -6.07110107       4.08696049      -0.00218000       0.00323200       0.00151300 
      46      -4.09066536      -2.02446558       6.12104998      -0.00210600       0.00349200       0.00143300 
      46      -4.08675807      -4.04703944       0.01342439      -0.00211500       0.00424300       0.00125000 
      46      -2.03280807      -6.06864313       4.05448022       0.01495500      -0.01689400       0.05627400 
      46       0.00650426      -2.02435326       6.09800093       0.00176500      -0.00389100      -0.00186300 
      46      -6.10930081      -4.04721710       6.10198878       0.00216600      -0.00314100      -0.00185800 
      46      -6.10539351      -6.06979096      -0.00563681       0.00215400      -0.00260600      -0.00129600 
      46      -4.06843703      -2.02315546       2.02845268       0.00146200      -0.00232300      -0.00079900 
      47      -4.06541196      -8.09446865       4.06267514      -0.00168000      -0.00130200       0.00176700 
      47      -2.02845547      -4.04783315       6.09676463      -0.00105100      -0.00761300      -0.00446700 
      47      -2.02454817      -6.07040701      -0.01086096      -0.00154400      -0.00112600       0.00008500 
      47       0.01240831      -2.02377152       2.02322853      -0.00110200      -0.00054500       0.00074300 
      47      -6.10339676      -4.04663535       2.02721638      -0.00169400      -0.00029300       0.00065000 
      47      -4.07788090      -6.07137239       6.10951354       0.00436400       0.00079700      -0.00389700 
      47      -4.07500192       0.00052254       0.00051868      -0.00129800       0.00063600       0.00056400 
      47      -2.03701712      -4.04731076       2.03597744      -0.00077400       0.01156000      -0.00975000 
      47       0.00096768      -8.09514406       4.07143620      -0.00479600       0.00492100       0.00138600 
      47      -6.11586570      -2.02353910       4.07405478      -0.00154300       0.00034400       0.00089800 
      47      -0.00237283      -0.00002029       0.00191164       0.00109000      -0.00084600      -0.00048600 
      47      -6.11817790      -2.02288413       0.00589949       0.00118000      -0.00042100      -0.00125700 
      47      -4.08019310      -6.07071742       2.04135825      -0.00863300      -0.00072200      -0.01021400 
      47      -2.04323661      -2.02408193       4.07544774       0.00154700      -0.00126900      -0.00026400 
      47      -0.00525181      -6.07191523       6.11090650      -0.00786300      -0.00152800      -0.00923200 
      47      -0.01381345      -6.07139282       2.05011929       0.00926000       0.00097800      -0.00681300 
      47      -6.13064684       0.00021214       2.05273786       0.00127400       0.00036100      -0.00076200 
      47      -4.09266204      -4.04762116       4.08819663      -0.00202400       0.00410200       0.00018700 
      47      -2.05467723      -8.09545446       6.12365539       0.00170000       0.01000900      -0.00888200 
      47      -2.05179825      -2.02355952       0.01466053       0.00114900       0.00002000      -0.00168100 
30
Lattice="0.0010283112102449 -8.09446879260025 0.0013692733790904 2.03407750581212 -2.025259437803122 8.143084349849085 -8.153789874033286 2.0249694649067314 -2.0314709114005236" Properties=Z:I:1:pos:R:3:vasp_force:R:3 uuid=62ea86e8-3c87-4d0d-813d-32682e222ed9 vasp_virial="-0.07108605235737099 -0.12969060306625982 -0.1934318201541737 -0.12969060306625982 -0.16817313612259316 -0.25324425811936724 -0.1934318201541737 -0.25324425811936724 0.10321774069891464" vasp_energy=-108.34855988 pbc="T T T"
      46      -2.04980158      -0.00040394       2.04751388      -0.00132200       0.00326100       0.00083300 
      46      -0.01181678      -4.04823724       4.08297264      -0.00754900      -0.00312000       0.00123200 
      46      -6.12762185      -6.07110107       4.08696049      -0.00233200       0.00335400       0.00129400 
      46      -4.09066536      -2.02446558       6.12104998      -0.00218500       0.00353300       0.00153100 
      46      -4.08675807      -4.04703944       0.01342439      -0.00189600       0.00420800       0.00139600 
      46      -2.03988556      -6.06864602       4.06156118       0.05948400      -0.01733500       0.01211900 
      46       0.00650426      -2.02435326       6.09800093       0.00144400      -0.00368400      -0.00144200 
      46      -6.10930081      -4.04721710       6.10198878       0.00186700      -0.00319500      -0.00156800 
      46      -6.10539351      -6.06979096      -0.00563681       0.00183100      -0.00256800      -0.00103500 
      46      -4.06843703      -2.02315546       2.02845268       0.00103900      -0.00256800      -0.00049500 
      47      -4.06541196      -8.09446865       4.06267514      -0.00729500      -0.00736800       0.00120500 
      47      -2.02845547      -4.04783315       6.09676463      -0.00046000      -0.00166500       0.00104000 
      47      -2.02454817      -6.07040701      -0.01086096      -0.00139700      -0.00119100       0.00041500 
      47       0.01240831      -2.02377152       2.02322853      -0.00113500      -0.00051800       0.00076200 
      47      -6.10339676      -4.04663535       2.02721638      -0.00202600      -0.00020400       0.00048200 
      47      -4.07788090      -6.07137239       6.10951354      -0.00588300       0.00079300       0.00640600 
      47      -4.07500192       0.00052254       0.00051868      -0.00106900       0.00066200       0.00042800 
      47      -2.03701712      -4.04731076       2.03597744      -0.00020000       0.00483800      -0.00388500 
      47       0.00096768      -8.09514406       4.07143620      -0.01024300       0.01115500       0.00079300 
      47      -6.11586570      -2.02353910       4.07405478      -0.00143000       0.00036200       0.00065000 
      47      -0.00237283      -0.00002029       0.00191164       0.00080700      -0.00090300      -0.00025500 
      47      -6.11817790      -2.02288413       0.00589949       0.00094700      -0.00033700      -0.00099400 
      47      -4.08019310      -6.07071742       2.04135825      -0.00836500      -0.00067800      -0.01075400 
      47      -2.04323661      -2.02408193       4.07544774       0.00172000      -0.00126600      -0.00048200 
      47      -0.00525181      -6.07191523       6.11090650      -0.00744400      -0.00153400      -0.00945400 
      47      -0.01381345      -6.07139282       2.05011929      -0.00410600       0.00100000       0.00643500 
      47      -6.13064684       0.00021214       2.05273786       0.00104000       0.00011500      -0.00097400 
      47      -4.09266204      -4.04762116       4.08819663      -0.00731100       0.01000200      -0.00031700 
      47      -2.05467723      -8.09545446       6.12365539       0.00215100       0.00452500      -0.00390000 
      47      -2.05179825      -2.02355952       0.01466053       0.00131900       0.00032700      -0.00146700 
30
Lattice="0.0010283112102449 -8.09446879260025 0.0013692733790904 2.03407750581212 -2.025259437803122 8.143084349849085 -8.153789874033286 2.0249694649067314 -2.0314709114005236" Properties=Z:I:1:pos:R:3:vasp_force:R:3 uuid=6f052948-d49c-43cd-a5ff-94d8c8ce25e0 vasp_virial="-0.06365628751520497 -0.13692534444516835 -0.20173919058099865 -0.13692534444516835 -0.16359008473604114 -0.2514764647911297 -0.20173919058099865 -0.2514764647911297 0.1086280690344462" vasp_energy=-108.3486024 pbc="T T T"
      46      -2.04980158      -0.00040394       2.04751388      -0.00117600       0.00385000       0.00083200 
      46      -0.01181678      -4.04823724       4.08297264       0.00291000       0.00852400       0.00138100 
      46      -6.12762185      -6.07110107       4.08696049      -0.00139000       0.00317000       0.00168800 
      46      -4.09066536      -2.02446558       6.12104998      -0.00186200       0.00327900       0.00175600 
      46      -4.08675807      -4.04703944       0.01342439      -0.00201600       0.00418100       0.00205800 
      46      -2.02101889      -6.07333150       4.06626170      -0.05528700       0.00968200      -0.01485900 
      46       0.00650426      -2.02435326       6.09800093       0.00194100      -0.00455200      -0.00166900 
      46      -6.10930081      -4.04721710       6.10198878       0.00239500      -0.00360500      -0.00170700 
      46      -6.10539351      -6.06979096      -0.00563681       0.00231400      -0.00305200      -0.00106700 
      46      -4.06843703      -2.02315546       2.02845268       0.00161000      -0.00299800      -0.00058300 
      47      -4.06541196      -8.09446865       4.06267514       0.00349800       0.00508600       0.00098600 
      47      -2.02845547      -4.04783315       6.09676463      -0.00187100      -0.00117000       0.00076400 
      47      -2.02454817      -6.07040701      -0.01086096      -0.00142100      -0.00121700       0.00098400 
      47       0.01240831      -2.02377152       2.02322853      -0.00089700      -0.00073100       0.00096100 
      47      -6.10339676      -4.04663535       2.02721638      -0.00077200      -0.00034900       0.00081200 
      47      -4.07788090      -6.07137239       6.10951354       0.00330600       0.00132600      -0.00493600 
      47      -4.07500192       0.00052254       0.00051868      -0.00129700       0.00077300       0.00056900 
      47      -2.03701712      -4.04731076       2.03597744      -0.00187500      -0.00315600       0.00411600 
      47       0.00096768      -8.09514406       4.07143620       0.00881300      -0.00961300       0.00032000 
      47      -6.11586570      -2.02353910       4.07405478      -0.00157700       0.00047800       0.00089400 
      47      -0.00237283      -0.00002029       0.00191164       0.00103800      -0.00059400      -0.00064200 
      47      -6.11817790      -2.02288413       0.00589949       0.00102800      -0.00019300      -0.00127400 
      47      -4.08019310      -6.07071742       2.04135825       0.01003500      -0.00015300       0.00834400 
      47      -2.04323661      -2.02408193       4.07544774       0.00111000      -0.00124300      -0.00070400 
      47      -0.00525181      -6.07191523       6.11090650       0.01072100      -0.00097800       0.00943800 
      47      -0.01381345      -6.07139282       2.05011929       0.00784900       0.00170200      -0.00822100 
      47      -6.13064684       0.00021214       2.05273786       0.00165700       0.00087100      -0.00081500 
      47      -4.09266204      -4.04762116       4.08819663       0.00960800      -0.00788600      -0.00097600 
      47      -2.05467723      -8.09545446       6.12365539       0.00054400      -0.00200700       0.00282800 
      47      -2.05179825      -2.02355952       0.01466053       0.00106300       0.00057600      -0.00128000 
30
Lattice="0.0010283112102449 -8.09446879260025 0.0013692733790904 2.03407750581212 -2.025259437803122 8.143084349849085 -8.153789874033286 2.0249694649067314 -2.0314709114005236" Properties=Z:I:1:pos:R:3:vasp_force:R:3 uuid=42701e60-c2b5-427e-92c9-84be57c0b81e vasp_virial="-0.06493023110583884 -0.13690332566705862 -0.19776637390205887 -0.13690332566705862 -0.16577623484836349 -0.24882477479877319 -0.19776637390205887 -0.24882477479877319 0.1038531397243666" vasp_energy=-108.34858992 pbc="T T T"
      46      -2.04980158      -0.00040394       2.04751388      -0.00134700       0.00460900       0.00073000 
      46      -0.01181678      -4.04823724       4.08297264      -0.00280400       0.00234300       0.00120100 
      46      -6.12762185      -6.07110107       4.08696049       0.00582300      -0.00345500       0.00125400 
      46      -4.09066536      -2.02446558       6.12104998      -0.00222100      -0.00361600       0.00960100 
      46      -4.08675807      -4.04703944       0.01342439      -0.00202700       0.00391000       0.00120100 
      46      -2.03045222      -6.07098876       4.06391144      -0.00702600      -0.01162000      -0.00106000 
      46       0.00650426      -2.02435326       6.09800093       0.00182100      -0.00396400      -0.00158400 
      46      -6.10930081      -4.04721710       6.10198878       0.00221400      -0.00349400      -0.00161500 
      46      -6.10539351      -6.06979096      -0.00563681       0.00210600      -0.00264800      -0.00094900 
      46      -4.06843703      -2.02315546       2.02845268       0.00124600      -0.01084000      -0.00935500 
      47      -4.06643900      -0.00999986       4.06130756      -0.00153000       0.05933700       0.00160300 
      47      -2.02845547      -4.04783315       6.09676463      -0.00113200      -0.00183200       0.00103600 
      47      -2.02454817      -6.07040701      -0.01086096      -0.00126100      -0.00122000       0.00072400 
      47       0.01240831      -2.02377152       2.02322853      -0.00095400      -0.00064100       0.00098800 
      47      -6.10339676      -4.04663535       2.02721638      -0.00125100      -0.00070500       0.00066000 
      47      -4.07788090      -6.07137239       6.10951354      -0.00117900      -0.00655100      -0.00820700 
      47      -4.07500192       0.00052254       0.00051868      -0.00110800       0.00088800       0.00067000 
      47      -2.03701712      -4.04731076       2.03597744      -0.00102500       0.00051300       0.00011200 
      47       0.00096768      -8.09514406       4.07143620      -0.00070500       0.00116900       0.00058700 
      47      -6.11586570      -2.02353910       4.07405478      -0.01051300      -0.00737500       0.00079700 
      47      -0.00237283      -0.00002029       0.00191164       0.00098800       0.00037500      -0.00043500 
      47      -6.11817790      -2.02288413       0.00589949       0.00098700      -0.00051200      -0.00106800 
      47      -4.08019310      -6.07071742       2.04135825       0.00114100      -0.00906800       0.00866900 
      47      -2.04323661      -2.02408193       4.07544774       0.01139500      -0.01005100      -0.00052900 
      47      -0.00525181      -6.07191523       6.11090650       0.00158500      -0.00151500      -0.00028400 
      47      -0.01381345      -6.07139282       2.05011929       0.00174400       0.00132500      -0.00096000 
      47      -6.13064684       0.00021214       2.05273786       0.00138000       0.00177200      -0.00099600 
      47      -4.09266204      -4.04762116       4.08819663       0.00130900      -0.00014500      -0.00070600 
      47      -2.05467723      -8.09545446       6.12365539       0.00128500       0.00256600      -0.00059200 
      47      -2.05179825      -2.02355952       0.01466053       0.00106100       0.00044700      -0.00149400 
30
Lattice="0.0010283112102449 -8.09446879260025 0.0013692733790904 2.03407750581212 -2.025259437803122 8.143084349849085 -8.153789874033286 2.0249694649067314 -2.0314709114005236" Properties=Z:I:1:pos:R:3:vasp_force:R:3 uuid=4ff7d8d4-8898-4405-9d95-154fe4e964b3 vasp_virial="-0.06872375202017088 -0.1288727627364702 -0.19726937862472518 -0.1288727627364702 -0.16676393432357098 -0.25683646449098185 -0.19726937862472518 -0.25683646449098185 0.10818769347225177" vasp_energy=-108.3485711 pbc="T T T"
      46      -2.04980158      -0.00040394       2.04751388      -0.00114300       0.00246500       0.00091100 
      46      -0.01181678      -4.04823724       4.08297264      -0.00187800       0.00287100       0.00137700 
      46      -6.12762185      -6.07110107       4.08696049      -0.00982300       0.01018000       0.00168900 
      46      -4.09066536      -2.02446558       6.12104998      -0.00178600       0.01019500      -0.00604100 
      46      -4.08675807      -4.04703944       0.01342439      -0.00184000       0.00446700       0.00221000 
      46      -2.03045222      -6.07098876       4.06391144       0.01008600       0.00418800      -0.00084600 
      46       0.00650426      -2.02435326       6.09800093       0.00162000      -0.00428600      -0.00156900 
      46      -6.10930081      -4.04721710       6.10198878       0.00209400      -0.00331700      -0.00171000 
      46      -6.10539351      -6.06979096      -0.00563681       0.00209300      -0.00299100      -0.00119400 
      46      -4.06843703      -2.02315546       2.02845268       0.00145300       0.00502500       0.00789200 
      47      -4.06541323      -8.08446865       4.06267345      -0.00205900      -0.06107000       0.00093600 
      47      -2.02845547      -4.04783315       6.09676463      -0.00114800      -0.00098800       0.00075300 
      47      -2.02454817      -6.07040701      -0.01086096      -0.00150500      -0.00120200       0.00062700 
      47       0.01240831      -2.02377152       2.02322853      -0.00103000      -0.00062200       0.00069200 
      47      -6.10339676      -4.04663535       2.02721638      -0.00149300       0.00013900       0.00059000 
      47      -4.07788090      -6.07137239       6.10951354      -0.00126500       0.00888800       0.00979700 
      47      -4.07500192       0.00052254       0.00051868      -0.00120800       0.00053400       0.00028400 
      47      -2.03701712      -4.04731076       2.03597744      -0.00103900       0.00111000       0.00012300 
      47       0.00096768      -8.09514406       4.07143620      -0.00106100       0.00082400       0.00050800 
      47      -6.11586570      -2.02353910       4.07405478       0.00724700       0.00798100       0.00070600 
      47      -0.00237283      -0.00002029       0.00191164       0.00092900      -0.00188600      -0.00052700 
      47      -6.11817790      -2.02288413       0.00589949       0.00103600      -0.00003400      -0.00123800 
      47      -4.08019310      -6.07071742       2.04135825       0.00095300       0.00849100      -0.01102000 
      47      -2.04323661      -2.02408193       4.07544774      -0.00817900       0.00728800      -0.00069700 
      47      -0.00525181      -6.07191523       6.11090650       0.00136800      -0.00103800      -0.00021300 
      47      -0.01381345      -6.07139282       2.05011929       0.00195200       0.00134900      -0.00068900 
      47      -6.13064684       0.00021214       2.05273786       0.00139200      -0.00079700      -0.00080300 
      47      -4.09266204      -4.04762116       4.08819663       0.00140000       0.00181900      -0.00065700 
      47      -2.05467723      -8.09545446       6.12365539       0.00146500      -0.00002100      -0.00059800 
      47      -2.05179825      -2.02355952       0.01466053       0.00137000       0.00043900      -0.00129400 
30
Lattice="0.0010283112102449 -8.09446879260025 0.0013692733790904 2.03407750581212 -2.025259437803122 8.143084349849085 -8.153789874033286 2.0249694649067314 -2.0314709114005236" Properties=Z:I:1:pos:R:3:vasp_force:R:3 uuid=f06a1b84-484c-4499-9abd-1067bf5e606a vasp_virial="-0.07621957319666607 -0.13449069669417912 -0.19487562289022548 -0.13449069669417912 -0.1756909760771981 -0.24885623019607275 -0.19487562289022548 -0.24885623019607275 0.09236562863055187" vasp_energy=-108.34859177 pbc="T T T"
      46      -2.04980158      -0.00040394       2.04751388      -0.00845600       0.00385700       0.00670100 
      46      -0.01181678      -4.04823724       4.08297264      -0.00221100       0.00273200       0.00114200 
      46      -6.12762185      -6.07110107       4.08696049       0.00154200      -0.00005200       0.00061200 
      46      -4.09066536      -2.02446558       6.12104998      -0.00240300      -0.00588700       0.01028600 
      46      -4.08675807      -4.04703944       0.01342439      -0.00185300       0.00468100       0.00201600 
      46      -2.03045222      -6.07098876       4.06391144       0.00125300      -0.00364600      -0.00164800 
      46       0.00650426      -2.02435326       6.09800093       0.00204200      -0.00418300      -0.00158700 
      46      -6.10930081      -4.04721710       6.10198878       0.00225700      -0.00345400      -0.00152700 
      46      -6.10539351      -6.06979096      -0.00563681       0.00218500      -0.00296900      -0.00044800 
      46      -4.06843703      -2.02315546       2.02845268       0.00119000       0.00348900       0.00486100 
      47      -4.06305611      -8.09681428       4.07210636      -0.01626500       0.01325200      -0.05658800 
      47      -2.02845547      -4.04783315       6.09676463      -0.00106700      -0.00158500       0.00101300 
      47      -2.02454817      -6.07040701      -0.01086096      -0.00141900      -0.00137500       0.00079000 
      47       0.01240831      -2.02377152       2.02322853      -0.00110600      -0.00072100       0.00099400 
      47      -6.10339676      -4.04663535       2.02721638      -0.00131000      -0.00053100       0.00073200 
      47      -4.07788090      -6.07137239       6.10951354      -0.00166900       0.00791600       0.00599200 
      47      -4.07500192       0.00052254       0.00051868      -0.00103800       0.00065700       0.00129300 
      47      -2.03701712      -4.04731076       2.03597744      -0.00107000       0.00072800       0.00014300 
      47       0.00096768      -8.09514406       4.07143620      -0.00057300       0.00101800       0.00042500 
      47      -6.11586570      -2.02353910       4.07405478      -0.00181400       0.00071000      -0.00049200 
      47      -0.00237283      -0.00002029       0.00191164      -0.00516000      -0.00053100       0.00445500 
      47      -6.11817790      -2.02288413       0.00589949       0.00110200      -0.00047500      -0.00074500 
      47      -4.08019310      -6.07071742       2.04135825       0.00086900      -0.01166100       0.00950600 
      47      -2.04323661      -2.02408193       4.07544774       0.00590200      -0.00573900      -0.00174900 
      47      -0.00525181      -6.07191523       6.11090650       0.00165300      -0.00134500      -0.00034800 
      47      -0.01381345      -6.07139282       2.05011929       0.00163100       0.00147200      -0.00075900 
      47      -6.13064684       0.00021214       2.05273786       0.01154800       0.00085700       0.00815600 
      47      -4.09266204      -4.04762116       4.08819663       0.00129900       0.00062500      -0.00097900 
      47      -2.05467723      -8.09545446       6.12365539       0.01194900       0.00159800       0.00918600 
      47      -2.05179825      -2.02355952       0.01466053       0.00099400       0.00056100      -0.00143400 
30
Lattice="0.0010283112102449 -8.09446879260025 0.0013692733790904 2.03407750581212 -2.025259437803122 8.143084349849085 -8.153789874033286 2.0249694649067314 -2.0314709114005236" Properties=Z:I:1:pos:R:3:vasp_force:R:3 uuid=fed9ab1f-7abd-490e-a03f-27034f07a196 vasp_virial="-0.06512840010882634 -0.13132942926556912 -0.1996002235646257 -0.13132942926556912 -0.16376308942118892 -0.2569213940636908 -0.1996002235646257 -0.2569213940636908 0.11245619088580779" vasp_energy=-108.34856566 pbc="T T T"
      46      -2.04980158      -0.00040394       2.04751388       0.00620200       0.00319400      -0.00521000 
      46      -0.01181678      -4.04823724       4.08297264      -0.00246000       0.00247200       0.00141700 
      46      -6.12762185      -6.07110107       4.08696049      -0.00524600       0.00658900       0.00233500 
      46      -4.09066536      -2.02446558       6.12104998      -0.00161000       0.01224500      -0.00670100 
      46      -4.08675807      -4.04703944       0.01342439      -0.00199300       0.00369200       0.00137500 
      46      -2.03045222      -6.07098876       4.06391144       0.00144300      -0.00406000      -0.00026600 
      46       0.00650426      -2.02435326       6.09800093       0.00140600      -0.00407300      -0.00157700 
      46      -6.10930081      -4.04721710       6.10198878       0.00206000      -0.00336100      -0.00181100 
      46      -6.10539351      -6.06979096      -0.00563681       0.00201900      -0.00267500      -0.00170900 
      46      -4.06843703      -2.02315546       2.02845268       0.00152600      -0.00924100      -0.00608600 
      47      -4.06776780      -8.09212302       4.05324391       0.01229300      -0.01481000       0.05959700 
      47      -2.02845547      -4.04783315       6.09676463      -0.00120600      -0.00124200       0.00076200 
      47      -2.02454817      -6.07040701      -0.01086096      -0.00133800      -0.00105300       0.00055000 
      47       0.01240831      -2.02377152       2.02322853      -0.00087300      -0.00054800       0.00067600 
      47      -6.10339676      -4.04663535       2.02721638      -0.00142600      -0.00004200       0.00051100 
      47      -4.07788090      -6.07137239       6.10951354      -0.00077000      -0.00564200      -0.00466100 
      47      -4.07500192       0.00052254       0.00051868      -0.00125600       0.00075800      -0.00036500 
      47      -2.03701712      -4.04731076       2.03597744      -0.00097700       0.00088700       0.00007200 
      47       0.00096768      -8.09514406       4.07143620      -0.00117500       0.00097100       0.00065000 
      47      -6.11586570      -2.02353910       4.07405478      -0.00109100       0.00013900       0.00197000 
      47      -0.00237283      -0.00002029       0.00191164       0.00691600      -0.00097100      -0.00533100 
      47      -6.11817790      -2.02288413       0.00589949       0.00092900      -0.00008300      -0.00157300 