32
Lattice="-2.0282371803659602 -6.067971797042913 4.021727257191353 4.056125599362782 6.060613791977743 6.021369817177294 -8.082399145057668 2.0091091315621066 -2.015874119855409" Properties=Z:I:1:pos:R:3:vasp_force:R:3 uuid=2d806e07-436e-4a54-84ce-f96e15fcd901 vasp_virial="0.15468047180644678 0.0820863820079062 0.035076934875809734 0.0820863820079062 -0.11970835175144443 0.10920721689180804 0.035076934875809734 0.10920721689180804 -0.061506647035013094" vasp_energy=-128.58840242 pbc="T T T"
      46      -0.00880805      -0.00188164       0.03259641       0.01843200       0.05074300      -0.03980100 
      46      -8.09238557      -2.02928368       2.03235137      -0.00818400      -0.00925200      -0.00329000 
      46      -6.06801068      -0.00585264       2.03157504      -0.00033600      -0.00182500      -0.00249900 
      46      -4.04363579       2.01757839       2.03079872      -0.00017500      -0.00103200      -0.00319700 
      46      -2.01926091       4.04100942       2.03002240       0.00052900      -0.00195900      -0.00281800 
      46      -2.02312320      -0.00353135       6.05097334      -0.00044900      -0.00080400      -0.00299000 
      46       0.00125169       2.01989969       6.05019701       0.00002200      -0.00194700      -0.00249600 
      46       2.02562658       4.04333072       6.04942069      -0.00918000      -0.00889900      -0.00267600 
      46       0.01077771       2.01186300       1.97894900      -0.00061600      -0.00133500      -0.00067200 
      46       0.00691542      -2.03267776       5.99989994      -0.00062100       0.00066000       0.00311600 
      46      -6.05110883       1.99986240       3.98324950      -0.00038400       0.00093300       0.00268000 
      46      -4.02673395       4.02329343       3.98247317      -0.00039200       0.00023500       0.00318900 
      46      -2.00235906       6.04672447       3.98169685       0.00334100      -0.00249300       0.00240400 
      46      -2.00622135       2.00218370       8.00264779      -0.00031400       0.00093800       0.00288300 
      46      -4.03797206      -2.03499906       1.98050165      -0.00056600       0.00018200       0.00263500 
      46      -2.01359717      -0.01156803       1.97972532      -0.00834600       0.00087600       0.01052300 
      47      -2.00729970       2.00492423       3.99641656       0.00039200      -0.00022900       0.00175400 
      47       0.01707519       4.02835526       3.99564024       0.00125400      -0.00048100       0.00204700 
      47       0.01321289      -0.01618551       8.01659118       0.00288000       0.00022900       0.00354500 
      47       2.03758778       2.00724553       8.01581485       0.00122200      -0.01085500       0.01327200 
      47      -8.07656207      -0.02082810      -0.02220541       0.00079500      -0.01475700       0.01601900 
      47      -6.05218719       2.00260293      -0.02298173       0.00435300       0.00065300       0.00442700 
      47      -6.05604948      -2.04193784       3.99796921       0.00045900      -0.00029000       0.00148800 
      47      -4.03167459      -0.01850681       3.99719289       0.00075200      -0.00021700       0.00259700 
      47      -0.00504598       0.00340762       4.03350566      -0.00011900       0.00080400      -0.00179800 
      47      -6.06307023       4.03594778       2.01685522      -0.00053600       0.00089400      -0.00181300 
      47      -6.06693253      -0.00859298       6.03780615      -0.00004200      -0.00127100      -0.00546300 
      47      -4.04255764       2.01483805       6.03702983      -0.00781600       0.00174900       0.00523300 
      47      -2.01818275       4.03826908       6.03625351      -0.00021200       0.00035200      -0.00198500 
      47      -4.04993346       0.00108632       0.01410737      -0.00073700       0.00121700      -0.00202800 
      47      -4.05379575      -4.04345444       4.03505831       0.00504700      -0.00341000      -0.00251700 
      47      -2.02942086      -2.02002341       4.03428198      -0.00045400       0.00059200      -0.00177100 
32
Lattice="-2.0282371803659602 -6.067971797042913 4.021727257191353 4.056125599362782 6.060613791977743 6.021369817177294 -8.082399145057668 2.0091091315621066 -2.015874119855409" Properties=Z:I:1:pos:R:3:vasp_force:R:3 uuid=575c98e9-c9cf-458a-9092-2f9d04dfc6e7 vasp_virial="0.15822779839814555 0.0798459652131491 0.040035986085257484 0.0798459652131491 -0.12027828233958436 0.12061893050720827 0.040035986085257484 0.12061893050720827 -0.06296750360001553" vasp_energy=-128.5883971 pbc="T T T"
      46      -0.00612413       0.00614796       0.02727455       0.00033100      -0.00152400      -0.00277400 
      46      -8.09238557      -2.02928368       2.03235137      -0.00021500      -0.00092200      -0.00329400 
      46      -6.06801068      -0.00585264       2.03157504       0.00017900      -0.00159400      -0.00261500 
      46      -4.04363579       2.01757839       2.03079872      -0.01198400      -0.00005200      -0.01419600 
      46      -2.01926091       4.04100942       2.03002240       0.00061500      -0.00094800      -0.00157500 
      46      -2.02312320      -0.00353135       6.05097334      -0.00014700      -0.00026500      -0.00268600 
      46       0.00125169       2.01989969       6.05019701      -0.00853100      -0.00109500      -0.01118000 
      46       2.02562658       4.04333072       6.04942069      -0.00031700      -0.00140700      -0.00350600 
      46       0.01077771       2.01186300       1.97894900       0.00215900       0.00125400       0.00118500 
      46       0.00691542      -2.03267776       5.99989994      -0.00031900       0.00070000       0.00319500 
      46      -6.05110883       1.99986240       3.98324950      -0.00067500       0.00072000       0.00262200 
      46      -4.02673395       4.02329343       3.98247317       0.00217600      -0.00040800       0.00372300 
      46      -2.00235906       6.04672447       3.98169685      -0.00022600       0.00044700       0.00265900 
      46      -2.00622135       2.00218370       8.00264779      -0.00017700       0.00092900       0.00276400 
      46      -4.03797206      -2.03499906       1.98050165      -0.00041900       0.00048300       0.00236700 
      46      -2.01359717      -0.01156803       1.97972532       0.00011400      -0.01141600      -0.00875900 
      47      -2.01158860       1.99851581       3.99004965       0.02978900       0.04127000       0.04321200 
      47       0.01707519       4.02835526       3.99564024      -0.00881500      -0.00969200       0.00334900 
      47       0.01321289      -0.01618551       8.01659118       0.00033500      -0.00030600       0.00169000 
      47       2.03758778       2.00724553       8.01581485       0.00082900      -0.00017800       0.00205600 
      47      -8.07656207      -0.02082810      -0.02220541       0.00046800      -0.00057900       0.00156500 
      47      -6.05218719       2.00260293      -0.02298173       0.00082600      -0.00017200       0.00204800 
      47      -6.05604948      -2.04193784       3.99796921       0.00032700      -0.00028200       0.00166800 
      47      -4.03167459      -0.01850681       3.99719289      -0.00895700      -0.01012900       0.00339600 
      47      -0.00504598       0.00340762       4.03350566       0.00267100      -0.00061100      -0.00106600 
      47      -6.06307023       4.03594778       2.01685522      -0.00084900       0.00111800      -0.00185700 
      47      -6.06693253      -0.00859298       6.03780615      -0.00020000       0.00061100      -0.00194100 
      47      -4.04255764       2.01483805       6.03702983       0.00191600       0.00181200      -0.00297200 
      47      -2.01818275       4.03826908       6.03625351       0.00032800      -0.00992600      -0.01277800 
      47      -4.04993346       0.00108632       0.01410737      -0.00072200       0.00066300      -0.00219900 
      47      -4.05379575      -4.04345444       4.03505831      -0.00010100       0.00076700      -0.00237200 
      47      -2.02942086      -2.02002341       4.03428198      -0.00041300       0.00073200      -0.00173000 
32
Lattice="-2.0282371803659602 -6.067971797042913 4.021727257191353 4.056125599362782 6.060613791977743 6.021369817177294 -8.082399145057668 2.0091091315621066 -2.015874119855409" Properties=Z:I:1:pos:R:3:vasp_force:R:3 uuid=b8c6b880-f016-4d46-952f-de80d9ff16e0 vasp_virial="0.15379937221903503 0.08328847698404052 0.041798185260081056 0.08328847698404052 -0.12375027327882786 0.11550920799284996 0.041798185260081056 0.11550920799284996 -0.06442180923871751" vasp_energy=-128.58838051 pbc="T T T"
      46      -0.00612413       0.00614796       0.02727455       0.00018800      -0.00157700      -0.00263100 
      46      -8.09238557      -2.02928368       2.03235137      -0.00057100      -0.00096100      -0.00292900 
      46      -6.06801068      -0.00585264       2.03157504       0.00018500      -0.00153500      -0.00259200 
      46      -4.04363579       2.01757839       2.03079872      -0.01270100      -0.00115600      -0.01629700 
      46      -2.01926091       4.04100942       2.03002240       0.00125400       0.00346600      -0.00764100 
      46      -2.02312320      -0.00353135       6.05097334       0.00036900       0.00290500      -0.00705900 
      46       0.00125169       2.01989969       6.05019701      -0.00890400      -0.00186500      -0.01253700 
      46       2.02562658       4.04333072       6.04942069      -0.00074600      -0.00056900      -0.00318600 
      46       0.01077771       2.01186300       1.97894900      -0.00616700       0.00044900       0.00949100 
      46       0.00691542      -2.03267776       5.99989994      -0.00045600       0.00091600       0.00317400 
      46      -6.05110883       1.99986240       3.98324950      -0.00113300       0.00057800       0.00263000 
      46      -4.02673395       4.02329343       3.98247317      -0.01071100       0.01202400       0.00366000 
      46      -2.00235906       6.04672447       3.98169685      -0.00010100       0.00092600       0.00278400 
      46      -2.00622135       2.00218370       8.00264779      -0.00016200       0.00064600       0.00285700 
      46      -4.03797206      -2.03499906       1.98050165      -0.00038400       0.00071200       0.00261400 
      46      -2.01359717      -0.01156803       1.97972532       0.00052600       0.00045600       0.00347400 
      47      -2.01673199       2.00726889       3.99406401       0.06532300      -0.01764100       0.01870900 
      47       0.01707519       4.02835526       3.99564024      -0.00444300      -0.00735200       0.00265900 
      47       0.01321289      -0.01618551       8.01659118       0.00044000      -0.00043300       0.00161500 
      47       2.03758778       2.00724553       8.01581485       0.00065900      -0.00018500       0.00205400 
      47      -8.07656207      -0.02082810      -0.02220541       0.00032400      -0.00018300       0.00171800 
      47      -6.05218719       2.00260293      -0.02298173       0.00063800      -0.00021100       0.00209200 
      47      -6.05604948      -2.04193784       3.99796921       0.00046800      -0.00037200       0.00155600 
      47      -4.03167459      -0.01850681       3.99719289      -0.00456700      -0.00775800       0.00260900 
      47      -0.00504598       0.00340762       4.03350566      -0.01206700       0.01346000      -0.00206100 
      47      -6.06307023       4.03594778       2.01685522      -0.00121700       0.00101100      -0.00189700 
      47      -6.06693253      -0.00859298       6.03780615      -0.00030600       0.00062000      -0.00197600 
      47      -4.04255764       2.01483805       6.03702983      -0.00576300       0.00074900       0.00489700 
      47      -2.01818275       4.03826908       6.03625351       0.00095100       0.00026900      -0.00180800 
      47      -4.04993346       0.00108632       0.01410737      -0.00062100       0.00094000      -0.00200300 
      47      -4.05379575      -4.04345444       4.03505831       0.00000800       0.00052600      -0.00216500 
      47      -2.02942086      -2.02002341       4.03428198      -0.00031200       0.00114600      -0.00181400 
32
Lattice="-2.0282371803659602 -6.067971797042913 4.021727257191353 4.056125599362782 6.060613791977743 6.021369817177294 -8.082399145057668 2.0091091315621066 -2.015874119855409" Properties=Z:I:1:pos:R:3:vasp_force:R:3 uuid=1bf702b8-b292-494e-aded-efa6e60ae506 vasp_virial="0.14946593447128115 0.07587610387507074 0.030298034139624612 0.07587610387507074 -0.12229596764012586 0.1192661642261634 0.030298034139624612 0.1192661642261634 -0.07280699490330551" vasp_energy=-128.58840707 pbc="T T T"
      46      -0.00612413       0.00614796       0.02727455       0.00015500      -0.00156100      -0.00279300 
      46      -8.09238557      -2.02928368       2.03235137      -0.00014400      -0.00080000      -0.00348900 
      46      -6.06801068      -0.00585264       2.03157504       0.00016200      -0.00160700      -0.00282900 
      46      -4.04363579       2.01757839       2.03079872       0.01153400      -0.00062900       0.00933800 
      46      -2.01926091       4.04100942       2.03002240      -0.00086300      -0.00656200       0.00217600 
      46      -2.02312320      -0.00353135       6.05097334      -0.00112200      -0.00470200       0.00068600 
      46       0.00125169       2.01989969       6.05019701       0.00961200      -0.00124800       0.00756500 
      46       2.02562658       4.04333072       6.04942069       0.00002500      -0.00118600      -0.00322700 
      46       0.01077771       2.01186300       1.97894900       0.00552100       0.00088900      -0.00446000 
      46       0.00691542      -2.03267776       5.99989994      -0.00024300       0.00065800       0.00302500 
      46      -6.05110883       1.99986240       3.98324950       0.00039700       0.00073900       0.00258700 
      46      -4.02673395       4.02329343       3.98247317       0.00961600      -0.00996000       0.00256100 
      46      -2.00235906       6.04672447       3.98169685      -0.00063400       0.00039000       0.00243100 
      46      -2.00622135       2.00218370       8.00264779      -0.00053900       0.00092800       0.00333800 
      46      -4.03797206      -2.03499906       1.98050165      -0.00035600       0.00060800       0.00260000 
      46      -2.01359717      -0.01156803       1.97972532      -0.00122400       0.00116000       0.00276300 
      47      -1.99786742       2.00257956       3.99876912      -0.06332500       0.01675500      -0.01451000 
      47       0.01707519       4.02835526       3.99564024       0.00670500       0.00705100       0.00198400 
      47       0.01321289      -0.01618551       8.01659118       0.00038000      -0.00025600       0.00180400 
      47       2.03758778       2.00724553       8.01581485       0.00152300      -0.00028400       0.00261100 
      47      -8.07656207      -0.02082810      -0.02220541       0.00049500      -0.00050700       0.00169700 
      47      -6.05218719       2.00260293      -0.02298173       0.00153800      -0.00025700       0.00256200 
      47      -6.05604948      -2.04193784       3.99796921       0.00034900      -0.00031700       0.00185800 
      47      -4.03167459      -0.01850681       3.99719289       0.00666400       0.00711700       0.00207000 
      47      -0.00504598       0.00340762       4.03350566       0.01211500      -0.01275600      -0.00209700 
      47      -6.06307023       4.03594778       2.01685522       0.00011200       0.00098800      -0.00178900 
      47      -6.06693253      -0.00859298       6.03780615      -0.00006100       0.00060100      -0.00215900 
      47      -4.04255764       2.01483805       6.03702983       0.00457900       0.00123100      -0.00842100 
      47      -2.01818275       4.03826908       6.03625351      -0.00132000       0.00091800      -0.00236000 
      47      -4.04993346       0.00108632       0.01410737      -0.00048600       0.00105500      -0.00168400 
      47      -4.05379575      -4.04345444       4.03505831      -0.00037300       0.00069300      -0.00196800 
      47      -2.02942086      -2.02002341       4.03428198      -0.00079500       0.00085100      -0.00187200 
32
Lattice="-2.0282371803659602 -6.067971797042913 4.021727257191353 4.056125599362782 6.060613791977743 6.021369817177294 -8.082399145057668 2.0091091315621066 -2.015874119855409" Properties=Z:I:1:pos:R:3:vasp_force:R:3 uuid=6cede605-5fbb-4484-8b94-92ba15e41cc6 vasp_virial="0.14928250853486827 0.07815255076448037 0.03583684232666302 0.07815255076448037 -0.12596776183153333 0.12382560893128314 0.03583684232666302 0.12382560893128314 -0.07518498115037227" vasp_energy=-128.58840437 pbc="T T T"
      46      -0.00344022       0.01417756       0.02195270      -0.01746700      -0.05350400       0.03487600 
      46      -8.09238557      -2.02928368       2.03235137       0.00784400       0.00777800      -0.00307600 
      46      -6.06801068      -0.00585264       2.03157504       0.00070400      -0.00132000      -0.00291600 
      46      -4.04363579       2.01757839       2.03079872      -0.00052000      -0.00074500      -0.00321700 
      46      -2.01926091       4.04100942       2.03002240      -0.00016300      -0.00119500      -0.00260400 
      46      -2.02312320      -0.00353135       6.05097334      -0.00025200      -0.00097100      -0.00342100 
      46       0.00125169       2.01989969       6.05019701       0.00034000      -0.00121000      -0.00292600 
      46       2.02562658       4.04333072       6.04942069       0.00812500       0.00683600      -0.00377100 
      46       0.01077771       2.01186300       1.97894900      -0.00011700       0.00259900       0.00589900 
      46       0.00691542      -2.03267776       5.99989994      -0.00005400       0.00090500       0.00308400 
      46      -6.05110883       1.99986240       3.98324950      -0.00033700       0.00037000       0.00254300 
      46      -4.02673395       4.02329343       3.98247317      -0.00029000       0.00134200       0.00301300 
      46      -2.00235906       6.04672447       3.98169685      -0.00398800       0.00376600       0.00279100 
      46      -2.00622135       2.00218370       8.00264779      -0.00037400       0.00061600       0.00331600 
      46      -4.03797206      -2.03499906       1.98050165      -0.00016800       0.00111800       0.00258300 
      46      -2.01359717      -0.01156803       1.97972532       0.00745100       0.00073000      -0.00413700 
      47      -2.00729970       2.00492423       3.99641656       0.00044500      -0.00047300       0.00166200 
      47       0.01707519       4.02835526       3.99564024       0.00094100      -0.00000700       0.00261200 
      47       0.01321289      -0.01618551       8.01659118      -0.00205100      -0.00095300      -0.00011800 
      47       2.03758778       2.00724553       8.01581485       0.00094600       0.01088700      -0.00917700 
      47      -8.07656207      -0.02082810      -0.02220541       0.00008500       0.01342100      -0.01194800 
      47      -6.05218719       2.00260293      -0.02298173      -0.00215400      -0.00111400       0.00021200 
      47      -6.05604948      -2.04193784       3.99796921       0.00037500      -0.00041500       0.00193200 
      47      -4.03167459      -0.01850681       3.99719289       0.00144000      -0.00026700       0.00206900 
      47      -0.00504598       0.00340762       4.03350566      -0.00022900       0.00040000      -0.00233500 
      47      -6.06307023       4.03594778       2.01685522      -0.00055200       0.00108700      -0.00187000 
      47      -6.06693253      -0.00859298       6.03780615      -0.00030000       0.00250100       0.00131700 
      47      -4.04255764       2.01483805       6.03702983       0.00693000       0.00016800      -0.00909700 
      47      -2.01818275       4.03826908       6.03625351      -0.00013300       0.00085000      -0.00214800 
      47      -4.04993346       0.00108632       0.01410737      -0.00035000       0.00076300      -0.00165500 
      47      -4.05379575      -4.04345444       4.03505831      -0.00549200       0.00465300      -0.00158700 
      47      -2.02942086      -2.02002341       4.03428198      -0.00063700       0.00138200      -0.00190700 
32
Lattice="-2.0282371803659602 -6.067971797042913 4.021727257191353 4.056125599362782 6.060613791977743 6.021369817177294 -8.082399145057668 2.0091091315621066 -2.015874119855409" Properties=Z:I:1:pos:R:3:vasp_force:R:3 uuid=819b7ecf-f344-4cbf-ab63-87d7d7e4f7c8 vasp_virial="0.15799524051447925 0.07820823363803427 0.0409432893778711 0.07820823363803427 -0.1182376687969913 0.12156553935762465 0.0409432893778711 0.12156553935762465 -0.06188987622358996" vasp_energy=-128.58837289 pbc="T T T"
      46      -0.00183524       0.01255637       0.03364147      -0.02676900      -0.04413600      -0.04807800 
      46      -8.09238557      -2.02928368       2.03235137       0.00762900       0.00706100      -0.00330900 
      46      -6.06801068      -0.00585264       2.03157504       0.00047700      -0.00133800      -0.00252100 
      46      -4.04363579       2.01757839       2.03079872      -0.00014900      -0.00109600      -0.00313100 
      46      -2.01926091       4.04100942       2.03002240       0.00033000      -0.00117800      -0.00234000 
      46      -2.02312320      -0.00353135       6.05097334      -0.00024000      -0.00093300      -0.00323900 
      46       0.00125169       2.01989969       6.05019701       0.00049900      -0.00129100      -0.00258400 
      46       2.02562658       4.04333072       6.04942069       0.00838800       0.00665200      -0.00390900 
      46       0.01077771       2.01186300       1.97894900      -0.00063200       0.01352200       0.01524200 
      46       0.00691542      -2.03267776       5.99989994      -0.00008500       0.00118900       0.00348300 
      46      -6.05110883       1.99986240       3.98324950      -0.00042600       0.00048800       0.00273800 
      46      -4.02673395       4.02329343       3.98247317      -0.00055200       0.00123700       0.00307400 
      46      -2.00235906       6.04672447       3.98169685      -0.00239800       0.00195800       0.00249300 
      46      -2.00622135       2.00218370       8.00264779      -0.00005300       0.00074200       0.00315500 
      46      -4.03797206      -2.03499906       1.98050165      -0.00017900       0.00104000       0.00259300 
      46      -2.01359717      -0.01156803       1.97972532      -0.00293400       0.00124200       0.00496000 
      47      -2.00729970       2.00492423       3.99641656       0.00030500      -0.00044400       0.00182400 
      47       0.01707519       4.02835526       3.99564024       0.00108300       0.00026000       0.00266700 
      47       0.01321289      -0.01618551       8.01659118       0.00913400      -0.00087900       0.01024700 
      47       2.03758778       2.00724553       8.01581485       0.00083600      -0.00069100       0.00170700 
      47      -8.07656207      -0.02082810      -0.02220541      -0.00002200      -0.00092600       0.00055500 
      47      -6.05218719       2.00260293      -0.02298173       0.01273600      -0.00108500       0.01335900 
      47      -6.05604948      -2.04193784       3.99796921       0.00034400      -0.00026900       0.00163100 
      47      -4.03167459      -0.01850681       3.99719289       0.00103800      -0.00022900       0.00242000 
      47      -0.00504598       0.00340762       4.03350566      -0.00017200       0.00031400      -0.00167800 
      47      -6.06307023       4.03594778       2.01685522      -0.00054600       0.00130200      -0.00166800 
      47      -6.06693253      -0.00859298       6.03780615      -0.00059100       0.01206000       0.00951200 
      47      -4.04255764       2.01483805       6.03702983      -0.00288300       0.00050600      -0.00059500 
      47      -2.01818275       4.03826908       6.03625351      -0.00027000       0.00063100      -0.00203400 
      47      -4.04993346       0.00108632       0.01410737      -0.00020700       0.00086100      -0.00177300 
      47      -4.05379575      -4.04345444       4.03505831      -0.00289700       0.00194900      -0.00272200 
      47      -2.02942086      -2.02002341       4.03428198      -0.00079200       0.00148100      -0.00207800 
32
Lattice="-2.0282371803659602 -6.067971797042913 4.021727257191353 4.056125599362782 6.060613791977743 6.021369817177294 -8.082399145057668 2.0091091315621066 -2.015874119855409" Properties=Z:I:1:pos:R:3:vasp_force:R:3 uuid=4837207b-def2-4d4c-b880-4315ab2ad68d vasp_virial="0.14543383933334839 0.08192588431354497 0.03188335830433578 0.08192588431354497 -0.12734018089147958 0.11453639543723174 0.03188335830433578 0.11453639543723174 -0.07587282841192051" vasp_energy=-128.58842414 pbc="T T T"
      46      -0.01041303      -0.00026046       0.02090763       0.02714000       0.04143100       0.04324700 
      46      -8.09238557      -2.02928368       2.03235137      -0.00798500      -0.00853900      -0.00314200 
      46      -6.06801068      -0.00585264       2.03157504      -0.00009900      -0.00181500      -0.00290600 
      46      -4.04363579       2.01757839       2.03079872      -0.00053700      -0.00068900      -0.00327800 
      46      -2.01926091       4.04100942       2.03002240       0.00005400      -0.00198300      -0.00308100 
      46      -2.02312320      -0.00353135       6.05097334      -0.00044300      -0.00085200      -0.00318200 
      46       0.00125169       2.01989969       6.05019701      -0.00012600      -0.00187100      -0.00283300 
      46       2.02562658       4.04333072       6.04942069      -0.00941900      -0.00875600      -0.00245900 
      46       0.01077771       2.01186300       1.97894900      -0.00012000      -0.01163700      -0.00946100 
      46       0.00691542      -2.03267776       5.99989994      -0.00057400       0.00038200       0.00272600 
      46      -6.05110883       1.99986240       3.98324950      -0.00027400       0.00080700       0.00248500 
      46      -4.02673395       4.02329343       3.98247317      -0.00011200       0.00033000       0.00312700 
      46      -2.00235906       6.04672447       3.98169685       0.00169400      -0.00064000       0.00272500 
      46      -2.00622135       2.00218370       8.00264779      -0.00062100       0.00080800       0.00304400 
      46      -4.03797206      -2.03499906       1.98050165      -0.00052000       0.00025400       0.00261700 
      46      -2.01359717      -0.01156803       1.97972532       0.00229300       0.00031100       0.00120500 
      47      -2.00729970       2.00492423       3.99641656       0.00054300      -0.00026500       0.00160100 
      47       0.01707519       4.02835526       3.99564024       0.00112500      -0.00074100       0.00200000 
      47       0.01321289      -0.01618551       8.01659118      -0.00863100       0.00022300      -0.00716700 
      47       2.03758778       2.00724553       8.01581485       0.00137600       0.00016900       0.00297800 
      47      -8.07656207      -0.02082810      -0.02220541       0.00087700       0.00025200       0.00282500 
      47      -6.05218719       2.00260293      -0.02298173      -0.01011100       0.00051500      -0.00832800 
      47      -6.05604948      -2.04193784       3.99796921       0.00051100      -0.00044800       0.00178300 
      47      -4.03167459      -0.01850681       3.99719289       0.00117500      -0.00026300       0.00223700 
      47      -0.00504598       0.00340762       4.03350566      -0.00016100       0.00087700      -0.00245600 
      47      -6.06307023       4.03594778       2.01685522      -0.00052800       0.00067000      -0.00201100 
      47      -6.06693253      -0.00859298       6.03780615       0.00031100      -0.01139800      -0.01418600 
      47      -4.04255764       2.01483805       6.03702983       0.00180600       0.00147900      -0.00306400 
      47      -2.01818275       4.03826908       6.03625351      -0.00006500       0.00056100      -0.00210000 
      47      -4.04993346       0.00108632       0.01410737      -0.00086100       0.00111200      -0.00191000 
      47      -4.05379575      -4.04345444       4.03505831       0.00256500      -0.00077900      -0.00142700 
      47      -2.02942086      -2.02002341       4.03428198      -0.00028500       0.00049600      -0.00161100 
32
Lattice="-2.0282371803659602 -6.067971797042913 4.021727257191353 4.056125599362782 6.060613791977743 6.021369817177294 -8.082399145057668 2.0091091315621066 -2.015874119855409" Properties=Z:I:1:pos:R:3:vasp_force:R:3 uuid=4685d8cb-0c64-4a0a-b830-193e31b178aa vasp_virial="0.15253504344304633 0.07225016616776647 0.027861089555853723 0.07225016616776647 -0.12069099069651333 0.12002279621386647 0.027861089555853723 0.12002279621386647 -0.07304282825012205" vasp_energy=-128.58842167 pbc="T T T"
      46      -0.01555642       0.00849262       0.02492199       0.06175400      -0.01718500       0.01275500 
      46      -8.09238557      -2.02928368       2.03235137      -0.00511000      -0.00717400      -0.00363300 
      46      -6.06801068      -0.00585264       2.03157504       0.00005100      -0.00167700      -0.00291300 
      46      -4.04363579       2.01757839       2.03079872      -0.00065600      -0.00084600      -0.00318400 
      46      -2.01926091       4.04100942       2.03002240      -0.00015200      -0.00119400      -0.00305100 
      46      -2.02312320      -0.00353135       6.05097334      -0.00055200      -0.00079100      -0.00355000 
      46       0.00125169       2.01989969       6.05019701      -0.00007500      -0.00189600      -0.00261500 
      46       2.02562658       4.04333072       6.04942069      -0.00505500      -0.00639000      -0.00325200 