1
Lattice="1.964408 1.964408 -1.964408 -1.964408 1.964408 1.964408 1.964408 -1.964408 1.964408" Properties=Z:I:1:pos:R:3:vasp_force:R:3 uuid=e482566f-5e93-422f-826f-8a825c51cbb8 vasp_virial="-3.0329115210083533 0.0 0.0 0.0 -3.0329115210083533 0.0 0.0 0.0 -3.0329115210083533" vasp_energy=-3.53137544 pbc="T T T"
      46       0.00000000       0.00000000       0.00000000      -0.00000000      -0.00000000       0.00000000 
3
Lattice="3.473763 0.0 0.0 0.0 0.0 3.473763 5.2106445 -5.2106445 5.2106445" Properties=Z:I:1:pos:R:3:vasp_force:R:3 uuid=b441a57a-8bb5-46a7-a028-843e0009c713 vasp_virial="-5.124170017703899 0.0 0.0 0.0 -5.247060595011573 0.0 0.0 0.0 -5.124170017703899" vasp_energy=-10.11836831 pbc="T T T"
      46       0.00000000       0.00000000       0.00000000       0.00000000       0.00000000       0.00000000 
      47       1.73688148      -1.73688148       1.73688148       0.00000000       0.25315900       0.00000000 
      47       3.47376302      -3.47376302       3.47376302      -0.00000000      -0.25315900      -0.00000000 
9
Lattice="6.947526 -3.473763 3.473763 12.1581705 -12.1581705 15.631933499999999 15.631933499999999 -15.631933499999999 15.631933499999999" Properties=Z:I:1:pos:R:3 pbc="T T T" uuid=46b0f2eb-9abd-4ee7-b023-ab997211ab89
      46       0.00000000       0.00000000       0.00000000 
      46       3.47376297      -3.47376297       3.47376297 
      46       6.94752593      -6.94752593       6.94752593 
      47       1.73688148      -1.73688148       1.73688148 
      47       5.21064445      -5.21064445       5.21064445 
      47       8.68440757      -8.68440757       8.68440757 
      47      10.42128905     -10.42128905      10.42128905 
      47      12.15817053     -12.15817053      12.15817053 
      47      13.89505202     -13.89505202      13.89505202 
9
Lattice="3.473763 0.0 0.0 1.7368815 -1.7368815 5.2106445 15.631933499999999 -15.631933499999999 15.631933499999999" Properties=Z:I:1:pos:R:3 pbc="T T T" uuid=5933083b-1739-406a-a9bb-3487ef75227c
      46       0.00000000       0.00000000       0.00000000 
      46       3.47376297      -3.47376297       3.47376297 
      46       8.68440757      -8.68440757       8.68440757 
      47       1.73688148      -1.73688148       1.73688148 
      47       5.21064445      -5.21064445       5.21064445 
      47       6.94752593      -6.94752593       6.94752593 
      47      10.42128905     -10.42128905      10.42128905 
      47      12.15817053     -12.15817053      12.15817053 
      47      13.89505202     -13.89505202      13.89505202 
9
Lattice="3.473763 0.0 0.0 3.473763 -3.473763 6.947526 15.631933499999999 -15.631933499999999 15.631933499999999" Properties=Z:I:1:pos:R:3 pbc="T T T" uuid=a2ac92a5-fadd-488e-85f7-0e7a700fb2b1
      46       0.00000000       0.00000000       0.00000000 
      46       3.47376297      -3.47376297       3.47376297 
      46       8.68440757      -8.68440757       8.68440757 
      47       1.73688148      -1.73688148       1.73688148 
      47       5.21064445      -5.21064445       5.21064445 
      47       6.94752593      -6.94752593       6.94752593 
      47      10.42128905     -10.42128905      10.42128905 
      47      12.15817053     -12.15817053      12.15817053 
      47      13.89505202     -13.89505202      13.89505202 
9
Lattice="5.2106445 -1.7368815 1.7368815 1.7368815 -1.7368815 5.2106445 15.631933499999999 -15.631933499999999 15.631933499999999" Properties=Z:I:1:pos:R:3 pbc="T T T" uuid=1338deb4-7a2e-42d1-aeb2-8c92d8decf48
      46       0.00000000       0.00000000       0.00000000 
      46       3.47376297      -3.47376297       3.47376297 
      46       8.68440757      -8.68440757       8.68440757 
      47       1.73688148      -1.73688148       1.73688148 
      47       5.21064445      -5.21064445       5.21064445 
      47       6.94752593      -6.94752593       6.94752593 
      47      10.42128905     -10.42128905      10.42128905 
      47      12.15817053     -12.15817053      12.15817053 
      47      13.89505202     -13.89505202      13.89505202 
9
Lattice="3.397921 0.0 0.0 0.0 0.0 3.397921 15.2906445 -15.2906445 15.2906445" Properties=Z:I:1:pos:R:3:vasp_force:R:3 uuid=5fa034ee-e9fa-40e4-9b7f-1794f7d22745 vasp_virial="-10.38652050204797 0.0 0.0 0.0 -10.747264743176645 -0.0 0.0 -0.0 -10.38652050204797" vasp_energy=-28.82078926 pbc="T T T"
      46       0.00000000       0.00000000       0.00000000      -0.00000000      -0.01775000      -0.00000000 
      46       6.79584193      -6.79584193       6.79584193       0.00000000       0.01775000       0.00000000 
      47       1.69896048      -1.69896048       1.69896048       0.00000000       0.32363600       0.00000000 
      47       3.39792097      -3.39792097       3.39792097      -0.00000000      -0.00000000       0.00000000 
      47       5.09688145      -5.09688145       5.09688145       0.00000000      -0.32363600       0.00000000 
      47       8.49480257      -8.49480257       8.49480257       0.00000000       0.30396200       0.00000000 
      47      10.19376305     -10.19376305      10.19376305       0.00000000       0.09380400       0.00000000 
      47      11.89272353     -11.89272353      11.89272353      -0.00000000      -0.09380400      -0.00000000 
      47      13.59168402     -13.59168402      13.59168402       0.00000000      -0.30396200       0.00000000 
9
Lattice="5.5519335000000005 -1.8506445 1.8506445 3.701289 -3.701289 7.402578 16.6558005 -16.6558005 16.6558005" Properties=Z:I:1:pos:R:3 pbc="T T T" uuid=87d90905-5daf-482c-8fd4-733077e7fe29
      46       0.00000000       0.00000000       0.00000000 
      46       1.85064448      -1.85064448       1.85064448 
      46       3.70128896      -3.70128896       3.70128896 
      46       5.55193344      -5.55193344       5.55193344 
      46       7.40257793      -7.40257793       7.40257793 
      46       9.25322257      -9.25322257       9.25322257 
      47      11.10386706     -11.10386706      11.10386706 
      47      12.95451154     -12.95451154      12.95451154 
      47      14.80515602     -14.80515602      14.80515602 
9
Lattice="5.3244075 -1.7748025 1.7748025 3.549605 -3.549605 7.09921 15.9732225 -15.9732225 15.9732225" Properties=Z:I:1:pos:R:3 pbc="T T T" uuid=ce1fd1b7-1419-4336-b740-1fbf7b93bd77
      46       0.00000000       0.00000000       0.00000000 
      46       1.77480248      -1.77480248       1.77480248 
      46       3.54960496      -3.54960496       3.54960496 
      46       5.32440745      -5.32440745       5.32440745 
      47       7.09920993      -7.09920993       7.09920993 
      47       8.87401257      -8.87401257       8.87401257 
      47      10.64881505     -10.64881505      10.64881505 
      47      12.42361754     -12.42361754      12.42361754 
      47      14.19842002     -14.19842002      14.19842002 
9
Lattice="5.3244075 -1.7748025 1.7748025 3.549605 -3.549605 7.09921 15.9732225 -15.9732225 15.9732225" Properties=Z:I:1:pos:R:3 pbc="T T T" uuid=eeb5e4bf-d1a9-4210-9c69-6665086f3a49
      46       0.00000000       0.00000000       0.00000000 
      46       1.77480248      -1.77480248       1.77480248 
      46       3.54960496      -3.54960496       3.54960496 
      46       7.09920993      -7.09920993       7.09920993 
      47       5.32440745      -5.32440745       5.32440745 
      47       8.87401257      -8.87401257       8.87401257 
      47      10.64881505     -10.64881505      10.64881505 
      47      12.42361754     -12.42361754      12.42361754 
      47      14.19842002     -14.19842002      14.19842002 
9
Lattice="5.0968815 -1.6989605 1.6989605 3.397921 -3.397921 6.795842 15.2906445 -15.2906445 15.2906445" Properties=Z:I:1:pos:R:3 pbc="T T T" uuid=8ed3511c-cbac-46af-af3e-62ef73ab159f
      46       0.00000000       0.00000000       0.00000000 
      46       5.09688145      -5.09688145       5.09688145 
      47       1.69896048      -1.69896048       1.69896048 
      47       3.39792097      -3.39792097       3.39792097 
      47       6.79584193      -6.79584193       6.79584193 
      47       8.49480257      -8.49480257       8.49480257 
      47      10.19376305     -10.19376305      10.19376305 
      47      11.89272353     -11.89272353      11.89272353 
      47      13.59168402     -13.59168402      13.59168402 
9
Lattice="1.8506445 1.8506445 -1.8506445 -5.5519335000000005 5.5519335000000005 5.5519335000000005 5.5519335000000005 -5.5519335000000005 5.5519335000000005" Properties=Z:I:1:pos:R:3:vasp_force:R:3 uuid=88534cbd-a983-4cc7-a2c4-76cc4bbec8aa vasp_virial="-24.422891335188762 -0.008710209280392667 0.008710209280392667 -0.008710209280392667 -24.422891335188762 0.008710209280392667 0.008710209280392667 0.008710209280392667 -24.422891335188762" vasp_energy=-31.92571544 pbc="T T T"
      46       0.00000000       0.00000000       0.00000000      -0.00000000       0.09166300       0.09166300 
      46       1.85064448      -1.85064448       1.85064448      -0.00570800       0.00570800       0.00000000 
      46       3.70128902      -3.70128902       3.70128902       0.00570800      -0.00000000       0.00570800 
      46      -1.85064448       1.85064448       1.85064448       0.09166300      -0.09166300       0.00000000 
      46       0.00000000       0.00000000       3.70128896      -0.09166300       0.00000000      -0.09166300 
      46      -1.85064454       1.85064454       5.55193350      -0.00000000      -0.00570800      -0.00570800 
      47       1.85064454      -1.85064454       5.55193350       0.00000000      -0.18236700      -0.18236700 
      47      -3.70128902       3.70128902       3.70128902       0.18236700      -0.00000000       0.18236700 
      47       0.00000000       0.00000000       7.40257804      -0.18236700       0.18236700       0.00000000 
6
Lattice="1.7368815 1.7368815 -1.7368815 -1.7368815 1.7368815 1.7368815 10.421289 -10.421289 10.421289" Properties=Z:I:1:pos:R:3:vasp_force:R:3 uuid=112df411-f7e6-4374-bc91-e9188bfad96e vasp_virial="-10.44310617137207 0.0 -0.03652193724003314 0.0 -10.318676807922706 0.0 -0.03652193724003314 0.0 -10.44310617137207" vasp_energy=-19.88436359 pbc="T T T"
      46       0.00000000       0.00000000       0.00000000       0.10153400       0.00000000       0.10153400 
      46       1.73688153      -1.73688153       1.73688153      -0.10153400      -0.00000000      -0.10153400 
      47       3.47376297      -3.47376297       3.47376297      -0.25924100       0.00000000      -0.25924100 
      47       5.21064450      -5.21064450       5.21064450      -0.01398700       0.00000000      -0.01398700 
      47       6.94752603      -6.94752603       6.94752603       0.01398700      -0.00000000       0.01398700 
      47       8.68440747      -8.68440747       8.68440747       0.25924100      -0.00000000       0.25924100 
9
Lattice="1.7368815 1.7368815 -1.7368815 -5.2106445 5.2106445 5.2106445 5.2106445 -5.2106445 5.2106445" Properties=Z:I:1:pos:R:3:vasp_force:R:3 uuid=567695ad-f4f6-4b14-aa9d-1f0b9d2ef2d5 vasp_virial="-15.647955127158854 0.21283402047775654 -0.21283402047775654 0.21283402047775654 -15.647955127158854 -0.21283402047775654 -0.21283402047775654 -0.21283402047775654 -15.647955127158854" vasp_energy=-30.14056752 pbc="T T T"
      46       0.00000000       0.00000000       0.00000000       0.13768200       0.00000000       0.13768200 
      46       1.73688148      -1.73688148       1.73688148      -0.13768200       0.13768200       0.00000000 
      46       0.00000000       0.00000000       3.47376297      -0.00000000      -0.13768200      -0.13768200 
      47       3.47376302      -3.47376302       3.47376302       0.00000000      -0.00278900      -0.00278900 
      47      -1.73688148       1.73688148       1.73688148       0.21463300      -0.21463300       0.00000000 
      47       1.73688153      -1.73688153       5.21064450      -0.21463300      -0.00000000      -0.21463300 
      47      -3.47376302       3.47376302       3.47376302       0.00000000       0.21463300       0.21463300 
      47      -1.73688153       1.73688153       5.21064450       0.00278900       0.00000000       0.00278900 
      47       0.00000000       0.00000000       6.94752603      -0.00278900       0.00278900       0.00000000 
9
Lattice="3.625447 0.0 0.0 -5.4381705 5.4381705 5.4381705 5.4381705 -5.4381705 5.4381705" Properties=Z:I:1:pos:R:3:vasp_force:R:3 uuid=879424a0-f7aa-4639-8088-dd0c4cc8e200 vasp_virial="-22.23722900684204 -0.0 0.0 -0.0 -22.434003649222735 0.0 0.0 0.0 -22.434003649222735" vasp_energy=-31.67247524 pbc="T T T"
      46       0.00000000       0.00000000       0.00000000      -0.00000000      -0.00000000      -0.00000000 
      46       1.81272348      -1.81272348       1.81272348      -0.00000000       0.00422400      -0.00422400 
      46       3.62544702      -3.62544702       3.62544702      -0.00000000      -0.00422400       0.00422400 
      46      -1.81272348       1.81272348       1.81272348      -0.00000000      -0.00422400      -0.00422400 
      46      -3.62544702       3.62544702       3.62544702      -0.00000000       0.00422400       0.00422400 
      47       0.00000000       0.00000000       3.62544696      -0.00000000       0.00000000      -0.34988700 
      47       1.81272354      -1.81272354       5.43817050       0.00000000      -0.34988700      -0.00000000 
      47      -1.81272354       1.81272354       5.43817050      -0.00000000       0.34988700      -0.00000000 
      47       0.00000000       0.00000000       7.25089404      -0.00000000       0.00000000       0.34988700 
9
Lattice="3.549605 0.0 0.0 -5.3244075 5.3244075 5.3244075 5.3244075 -5.3244075 5.3244075" Properties=Z:I:1:pos:R:3:vasp_force:R:3 uuid=31a11759-2d20-4515-a269-9e217ccecf12 vasp_virial="-19.335421935642376 0.0 -0.0 0.0 -19.42341664179423 0.0 -0.0 0.0 -19.42341664179423" vasp_energy=-31.10903489 pbc="T T T"
      46       0.00000000       0.00000000       0.00000000      -0.00000000       0.00000000       0.19939000 
      46       1.77480248      -1.77480248       1.77480248      -0.00000000       0.19939000       0.00000000 
      46      -1.77480248       1.77480248       1.77480248       0.00000000      -0.19939000       0.00000000 
      46       0.00000000       0.00000000       3.54960496      -0.00000000       0.00000000      -0.19939000 
      47       3.54960502      -3.54960502       3.54960502      -0.00000000       0.04960900       0.04960900 
      47       1.77480254      -1.77480254       5.32440750       0.00000000      -0.04960900      -0.04960900 
      47      -3.54960502       3.54960502       3.54960502       0.00000000      -0.04960900       0.04960900 
      47      -1.77480254       1.77480254       5.32440750      -0.00000000       0.04960900      -0.04960900 
      47       0.00000000       0.00000000       7.09921004      -0.00000000       0.00000000       0.00000000 
4
Lattice="1.8790855 1.8790855 -1.8790855 -1.8790855 1.8790855 1.8790855 7.516342 -7.516342 7.516342" Properties=Z:I:1:pos:R:3:vasp_force:R:3 uuid=cdbdecd4-31a6-4e25-815b-d8687f3f3920 vasp_virial="-11.363973993026432 -0.0 0.01719902047757018 -0.0 -11.312675100072934 0.0 0.01719902047757018 0.0 -11.363973993026432" vasp_energy=-14.19582754 pbc="T T T"
      46       0.00000000       0.00000000       0.00000000       0.10698100       0.00000000       0.10698100 
      46       1.87908550      -1.87908550       1.87908550      -0.00000000      -0.00000000      -0.00000000 
      46       3.75817100      -3.75817100       3.75817100      -0.10698100      -0.00000000      -0.10698100 
      47       5.63725650      -5.63725650       5.63725650      -0.00000000       0.00000000      -0.00000000 
10
Lattice="11.3769 -7.5846 7.5846 13.27305 -13.27305 17.06535 18.9615 -18.9615 18.9615" Properties=Z:I:1:pos:R:3 pbc="T T T" uuid=b009d8eb-0943-4efb-adc3-c01383b4bf7f
      46       0.00000000       0.00000000       0.00000000 
      46       1.89615000      -1.89615000       1.89615000 
      46       3.79230000      -3.79230000       3.79230000 
      46       5.68845000      -5.68845000       5.68845000 
      46       7.58460000      -7.58460000       7.58460000 
      46       9.48075000      -9.48075000       9.48075000 
      46      11.37690000     -11.37690000      11.37690000 
      46      15.16920000     -15.16920000      15.16920000 
      47      13.27305000     -13.27305000      13.27305000 
      47      17.06535000     -17.06535000      17.06535000 
10
Lattice="3.724042 0.0 0.0 1.862021 -1.862021 5.586062999999999 18.62021 -18.62021 18.62021" Properties=Z:I:1:pos:R:3 pbc="T T T" uuid=09d06189-f526-4234-868a-bada4ee029f0
      46       0.00000000       0.00000000       0.00000000 
      46       1.86202100      -1.86202100       1.86202100 
      46       3.72404200      -3.72404200       3.72404200 
      46       5.58606300      -5.58606300       5.58606300 
      46       7.44808400      -7.44808400       7.44808400 
      46       9.31010500      -9.31010500       9.31010500 
      46      11.17212600     -11.17212600      11.17212600 
      47      13.03414700     -13.03414700      13.03414700 
      47      14.89616800     -14.89616800      14.89616800 
      47      16.75818900     -16.75818900      16.75818900 
10
Lattice="5.586062999999999 -1.862021 1.862021 1.862021 -1.862021 5.586062999999999 18.62021 -18.62021 18.62021" Properties=Z:I:1:pos:R:3 pbc="T T T" uuid=2c4269b8-a78f-4fd0-b18a-52408e5037e2
      46       0.00000000       0.00000000       0.00000000 
      46       1.86202100      -1.86202100       1.86202100 
      46       3.72404200      -3.72404200       3.72404200 
      46       5.58606300      -5.58606300       5.58606300 
      46       7.44808400      -7.44808400       7.44808400 
      46       9.31010500      -9.31010500       9.31010500 
      46      11.17212600     -11.17212600      11.17212600 
      47      13.03414700     -13.03414700      13.03414700 
      47      14.89616800     -14.89616800      14.89616800 
      47      16.75818900     -16.75818900      16.75818900 
10
Lattice="5.586062999999999 -1.862021 1.862021 5.586062999999999 -5.586062999999999 9.310105 18.62021 -18.62021 18.62021" Properties=Z:I:1:pos:R:3 pbc="T T T" uuid=3291e28f-e4fe-49f4-96d3-0656fbe90ddb
      46       0.00000000       0.00000000       0.00000000 
      46       1.86202100      -1.86202100       1.86202100 
      46       3.72404200      -3.72404200       3.72404200 
      46       5.58606300      -5.58606300       5.58606300 
      46       7.44808400      -7.44808400       7.44808400 
      46       9.31010500      -9.31010500       9.31010500 
      46      11.17212600     -11.17212600      11.17212600 
      47      13.03414700     -13.03414700      13.03414700 
      47      14.89616800     -14.89616800      14.89616800 
      47      16.75818900     -16.75818900      16.75818900 
4
Lattice="1.8790855 1.8790855 -1.8790855 1.8790855 -1.8790855 5.6372564999999994 7.516342 -7.516342 7.516342" Properties=Z:I:1:pos:R:3:vasp_force:R:3 uuid=6ffae9fe-00bf-4321-83c2-b13a39c45686 vasp_virial="-11.276652372204397 0.012443564532448586 0.16117066456002804 0.012443564532448586 -11.344742126117257 -0.012443564532448586 0.16117066456002804 -0.012443564532448586 -11.276652372204397" vasp_energy=-14.24362849 pbc="T T T"
      46       0.00000000       0.00000000       0.00000000       0.02823300      -0.13581800      -0.02823300 
      46       1.87908550      -1.87908550       1.87908550      -0.00000000      -0.00000000       0.00000000 
      46       3.75817100      -3.75817100       3.75817100      -0.02823300       0.13581800       0.02823300 
      47       5.63725650      -5.63725650       5.63725650      -0.00000000       0.00000000       0.00000000 
10
Lattice="13.034146999999999 -9.310105 9.310105 9.310105 -9.310105 13.034146999999999 18.62021 -18.62021 18.62021" Properties=Z:I:1:pos:R:3 pbc="T T T" uuid=da53902d-534b-4a9a-8c8a-17f468d839f3
      46       0.00000000       0.00000000       0.00000000 
      46       1.86202100      -1.86202100       1.86202100 
      46       3.72404200      -3.72404200       3.72404200 
      46       5.58606300      -5.58606300       5.58606300 
      46       7.44808400      -7.44808400       7.44808400 
      46       9.31010500      -9.31010500       9.31010500 
      46      11.17212600     -11.17212600      11.17212600 
      47      13.03414700     -13.03414700      13.03414700 
      47      14.89616800     -14.89616800      14.89616800 
      47      16.75818900     -16.75818900      16.75818900 
10
Lattice="11.172125999999999 -7.448084 7.448084 13.034146999999999 -13.034146999999999 16.758188999999998 18.62021 -18.62021 18.62021" Properties=Z:I:1:pos:R:3 pbc="T T T" uuid=163e2472-6696-48e6-87fe-05349876fbb7
      46       0.00000000       0.00000000       0.00000000 
      46       1.86202100      -1.86202100       1.86202100 
      46       3.72404200      -3.72404200       3.72404200 
      46       5.58606300      -5.58606300       5.58606300 
      46       7.44808400      -7.44808400       7.44808400 
      46       9.31010500      -9.31010500       9.31010500 
      46      13.03414700     -13.03414700      13.03414700 
      47      11.17212600     -11.17212600      11.17212600 
      47      14.89616800     -14.89616800      14.89616800 
      47      16.75818900     -16.75818900      16.75818900 
10
Lattice="3.724042 0.0 0.0 -3.724042 3.724042 3.724042 9.310105 -9.310105 9.310105" Properties=Z:I:1:pos:R:3:vasp_force:R:3 uuid=97d48542-08c2-4c01-aad0-c6bc3c377a26 vasp_virial="-27.373186431301583 0.0 -0.0 0.0 -27.4527805163572 -0.1275458827287032 -0.0 -0.1275458827287032 -27.4527805163572" vasp_energy=-35.61692877 pbc="T T T"
      46       0.00000000       0.00000000       0.00000000       0.00000000       0.10634300      -0.10634300 
      46       3.72404200      -3.72404200       3.72404200      -0.00000000      -0.00288700       0.00288700 
      46       7.44808400      -7.44808400       7.44808400       0.00000000      -0.11212500       0.11212500 
      46      -1.86202100       1.86202100       1.86202100       0.00000000      -0.14388900       0.14388900 
      46       0.00000000      -0.00000000       3.72404200      -0.00000000      -0.00011700       0.00011700 
      46       1.86202100      -1.86202100       5.58606300      -0.00000000       0.02507700      -0.02507700 
      46       3.72404200      -3.72404200       7.44808400      -0.00000000       0.12983600      -0.12983600 
      47       1.86202100      -1.86202100       1.86202100      -0.00000000      -0.00300300       0.00300300 
      47       5.58606300      -5.58606300       5.58606300      -0.00000000       0.02795700      -0.02795700 
      47       5.58606300      -5.58606300       9.31010500      -0.00000000      -0.02719300       0.02719300 
10
Lattice="1.827892 1.827892 -1.827892 3.655784 -3.655784 7.311568 18.27892 -18.27892 18.27892" Properties=Z:I:1:pos:R:3 pbc="T T T" uuid=5e4b98d9-4ce5-4538-9e68-61795dae9e2f
      46       0.00000000       0.00000000       0.00000000 
      46       1.82789200      -1.82789200       1.82789200 
      46       3.65578400      -3.65578400       3.65578400 
      46       5.48367600      -5.48367600       5.48367600 
      46       7.31156800      -7.31156800       7.31156800 
      46       9.13946000      -9.13946000       9.13946000 
      47      10.96735200     -10.96735200      10.96735200 
      47      12.79524400     -12.79524400      12.79524400 
      47      14.62313600     -14.62313600      14.62313600 
      47      16.45102800     -16.45102800      16.45102800 
10
Lattice="3.655784 0.0 0.0 1.827892 -1.827892 5.483676 18.27892 -18.27892 18.27892" Properties=Z:I:1:pos:R:3 pbc="T T T" uuid=27c8cc9b-73ae-4a1f-9f9a-c7e52271f336
      46       0.00000000       0.00000000       0.00000000 
      46       1.82789200      -1.82789200       1.82789200 
      46       3.65578400      -3.65578400       3.65578400 
      46       5.48367600      -5.48367600       5.48367600 
      46       7.31156800      -7.31156800       7.31156800 
      46       9.13946000      -9.13946000       9.13946000 
      47      10.96735200     -10.96735200      10.96735200 
      47      12.79524400     -12.79524400      12.79524400 
      47      14.62313600     -14.62313600      14.62313600 
      47      16.45102800     -16.45102800      16.45102800 
10
Lattice="5.483676 -1.827892 1.827892 1.827892 -1.827892 5.483676 18.27892 -18.27892 18.27892" Properties=Z:I:1:pos:R:3 pbc="T T T" uuid=c28e048e-2f63-4a9b-bf2a-6e45fd9ce638
      46       0.00000000       0.00000000       0.00000000 
      46       1.82789200      -1.82789200       1.82789200 
      46       3.65578400      -3.65578400       3.65578400 
      46       5.48367600      -5.48367600       5.48367600 
      46       7.31156800      -7.31156800       7.31156800 
      46       9.13946000      -9.13946000       9.13946000 
      47      10.96735200     -10.96735200      10.96735200 
      47      12.79524400     -12.79524400      12.79524400 
      47      14.62313600     -14.62313600      14.62313600 
      47      16.45102800     -16.45102800      16.45102800 
10
Lattice="5.483676 -1.827892 1.827892 5.483676 -5.483676 9.13946 18.27892 -18.27892 18.27892" Properties=Z:I:1:pos:R:3 pbc="T T T" uuid=50c44f9d-18cd-4049-931c-d2e2e3a714b6
      46       0.00000000       0.00000000       0.00000000 
      46       1.82789200      -1.82789200       1.82789200 
      46       3.65578400      -3.65578400       3.65578400 
      46       5.48367600      -5.48367600       5.48367600 
      46       7.31156800      -7.31156800       7.31156800 
      46       9.13946000      -9.13946000       9.13946000 
      47      10.96735200     -10.96735200      10.96735200 
      47      12.79524400     -12.79524400      12.79524400 
      47      14.62313600     -14.62313600      14.62313600 
      47      16.45102800     -16.45102800      16.45102800 
10
Lattice="7.311568 -3.655784 3.655784 3.655784 -3.655784 7.311568 18.27892 -18.27892 18.27892" Properties=Z:I:1:pos:R:3 pbc="T T T" uuid=7635c322-8362-4de1-9b12-4484bc889de0
      46       0.00000000       0.00000000       0.00000000 
      46       1.82789200      -1.82789200       1.82789200 
      46       3.65578400      -3.65578400       3.65578400 
      46       5.48367600      -5.48367600       5.48367600 
      46       7.31156800      -7.31156800       7.31156800 
      46       9.13946000      -9.13946000       9.13946000 
      47      10.96735200     -10.96735200      10.96735200 
      47      12.79524400     -12.79524400      12.79524400 
      47      14.62313600     -14.62313600      14.62313600 
      47      16.45102800     -16.45102800      16.45102800 
6
Lattice="8.684407499999999 -5.2106445 5.2106445 5.2106445 -5.2106445 8.684407499999999 10.421289 -10.421289 10.421289" Properties=Z:I:1:pos:R:3 pbc="T T T" uuid=7e3898f9-ca29-413a-bc6c-6df794517734
      46       0.00000000       0.00000000       0.00000000 
      46       3.47376297      -3.47376297       3.47376297 
      47       1.73688153      -1.73688153       1.73688153 
      47       5.21064450      -5.21064450       5.21064450 
      47       6.94752603      -6.94752603       6.94752603 
      47       8.68440747      -8.68440747       8.68440747 
10
Lattice="3.724042 0.0 0.0 5.586062999999999 -5.586062999999999 9.310105 18.62021 -18.62021 18.62021" Properties=Z:I:1:pos:R:3 pbc="T T T" uuid=d7971548-7d6d-4230-9a62-72c85f32bfa7
      46       0.00000000       0.00000000       0.00000000 
      46       1.86202100      -1.86202100       1.86202100 
      46       3.72404200      -3.72404200       3.72404200 
      46       5.58606300      -5.58606300       5.58606300 
      46       7.44808400      -7.44808400       7.44808400 
      46      11.17212600     -11.17212600      11.17212600 
      46      13.03414700     -13.03414700      13.03414700 
      47       9.31010500      -9.31010500       9.31010500 
      47      14.89616800     -14.89616800      14.89616800 
      47      16.75818900     -16.75818900      16.75818900 
10
Lattice="3.724042 0.0 0.0 7.448084 -7.448084 11.172125999999999 18.62021 -18.62021 18.62021" Properties=Z:I:1:pos:R:3 pbc="T T T" uuid=5cabb016-25f7-46bd-b320-12da4dda9461
      46       0.00000000       0.00000000       0.00000000 
      46       1.86202100      -1.86202100       1.86202100 
      46       3.72404200      -3.72404200       3.72404200 
      46       5.58606300      -5.58606300       5.58606300 
      46       7.44808400      -7.44808400       7.44808400 
      46      11.17212600     -11.17212600      11.17212600 
      46      13.03414700     -13.03414700      13.03414700 
      47       9.31010500      -9.31010500       9.31010500 
      47      14.89616800     -14.89616800      14.89616800 
      47      16.75818900     -16.75818900      16.75818900 
10
Lattice="7.448084 -3.724042 3.724042 3.724042 -3.724042 7.448084 18.62021 -18.62021 18.62021" Properties=Z:I:1:pos:R:3 pbc="T T T" uuid=66e4a7be-47f9-4e78-ac46-89bda4bd09cf
      46       0.00000000       0.00000000       0.00000000 
      46       1.86202100      -1.86202100       1.86202100 
      46       3.72404200      -3.72404200       3.72404200 
      46       5.58606300      -5.58606300       5.58606300 
      46       7.44808400      -7.44808400       7.44808400 
      46      11.17212600     -11.17212600      11.17212600 
      46      13.03414700     -13.03414700      13.03414700 
      47       9.31010500      -9.31010500       9.31010500 
      47      14.89616800     -14.89616800      14.89616800 
      47      16.75818900     -16.75818900      16.75818900 
10
Lattice="9.310105 -5.586062999999999 5.586062999999999 13.034146999999999 -13.034146999999999 16.758188999999998 18.62021 -18.62021 18.62021" Properties=Z:I:1:pos:R:3 pbc="T T T" uuid=1cc25d0f-2bb2-41a1-9e01-fc869be42b84
      46       0.00000000       0.00000000       0.00000000 