3
Lattice="2.0065 2.0065 0.0 2.0065 0.0 6.0195 2.0065 -2.0065 0.0" Properties=Z:I:1:pos:R:3:vasp_force:R:3 uuid=6723c45d-fc1e-4315-ba1a-30aa721c5e49 vasp_virial="1.5271734549744984 0.0 -0.0 0.0 1.5271734549744984 0.0 -0.0 0.0 1.3272977401529462" vasp_energy=-10.75103276 pbc="T T T"
      46       0.00000000       0.00000000       0.00000000       0.00000000       0.00000000      -0.00000000 
      47       2.00650000       0.00000000       2.00650000       0.00000000       0.00000000      -0.37999300 
      47       4.01300000       0.00000000       4.01300000      -0.00000000       0.00000000       0.37999300 
6
Lattice="2.02475 2.02475 0.0 -4.0495 4.0495 0.0 2.02475 0.0 6.07425" Properties=Z:I:1:pos:R:3:vasp_force:R:3 uuid=f41e8e8d-d5b2-424b-b6c0-2a284e4086ce vasp_virial="-1.1638734750490287 0.03874347630108019 0.007619629088642748 0.03874347630108019 -1.1638734750490287 -0.007619629088642748 0.007619629088642748 -0.007619629088642748 -1.011567932120202" vasp_energy=-24.08516702 pbc="T T T"
      46       0.00000000       0.00000000       0.00000000       0.09370000      -0.09370000       0.22002600 
      46      -2.02475000       4.04950000       2.02475000       0.00438700      -0.00438700      -0.39154800 
      46      -2.02475000       2.02475000       0.00000000      -0.10285400       0.10285400       0.18235600 
      47       0.00000000       4.04950000       4.04950000      -0.08438900       0.08438900       0.15091700 
      47       0.00000000       2.02475000       2.02475000       0.00012500      -0.00012500      -0.34228300 
      47       2.02475000       2.02475000       4.04950000       0.08903100      -0.08903100       0.18053200 
9
Lattice="2.043 2.043 0.0 -2.043 0.0 2.043 12.258000000000001 -12.258000000000001 12.258000000000001" Properties=Z:I:1:pos:R:3:vasp_force:R:3 uuid=2300441d-5ada-4192-b4f3-e7a231588dab vasp_virial="-1.9245232208762668 0.04790306214702553 -0.04790306214702553 0.04790306214702553 -1.9245232208762668 0.04790306214702553 -0.04790306214702553 0.04790306214702553 -1.9245232208762668" vasp_energy=-32.30699314 pbc="T T T"
      46       0.00000000       0.00000000       0.00000000      -0.00753300       0.00753300      -0.00753300 
      46       2.04299996      -2.04299998       4.08599998       0.00143200      -0.00143200       0.00143200 
      46       6.12900004      -6.12900006       8.17200006       0.00542500      -0.00542500       0.00542500 
      47       2.04300000       0.00000002       2.04299998       0.00108900      -0.00108900       0.00108900 
      47       4.08599996      -4.08599996       4.08599996      -0.18449800       0.18449800      -0.18449800 
      47       6.12899996      -4.08599994       6.12899994       0.17898400      -0.17898400       0.17898400 
      47       8.17200004      -8.17200004       8.17200004      -0.21652300       0.21652300      -0.21652300 
      47      10.21500004      -8.17200002      10.21500002       0.00186000      -0.00186000       0.00186000 
      47      10.21500000     -10.21500002      12.25800002       0.21976400      -0.21976400       0.21976400 
9
Lattice="2.043 2.043 0.0 0.0 -2.043 6.1290000000000004 6.1290000000000004 -6.1290000000000004 0.0" Properties=Z:I:1:pos:R:3:vasp_force:R:3 uuid=03bec9e5-c4af-4c43-8289-5429ad9e95bf vasp_virial="-1.6107664505457973 0.1314457802745651 -0.038489717174590425 0.1314457802745651 -1.6107664505457973 0.038489717174590425 -0.038489717174590425 0.038489717174590425 -2.070078480568095" vasp_energy=-32.39140878 pbc="T T T"
      46       0.00000000       0.00000000       0.00000000       0.09023100      -0.09023100      -0.17754600 
      46       2.04299998      -2.04300000       4.08600002      -0.07244100       0.07244100       0.16262000 
      46       4.08600002      -4.08600004       4.08600002      -0.01789300       0.01789300      -0.00267900 
      47       2.04300000       0.00000002       2.04299998       0.01360800      -0.01360800       0.00593900 
      47       2.04299998      -2.04299998       0.00000000      -0.07071100       0.07071100      -0.37392100 
      47       4.08599998      -2.04299996       2.04299998      -0.02175000       0.02175000       0.38918000 
      47       4.08600002      -4.08600002       0.00000000      -0.02606100       0.02606100      -0.20188300 
      47       6.12900002      -4.08600000       2.04299998       0.00703900      -0.00703900       0.00355100 
      47       6.12900000      -6.12900002       4.08600002       0.09798000      -0.09798000       0.19473800 
9
Lattice="2.043 2.043 0.0 -4.086 2.043 6.1290000000000004 4.086 -4.086 4.086" Properties=Z:I:1:pos:R:3:vasp_force:R:3 uuid=2db67ebd-df00-464c-9892-f3d7b4d2de79 vasp_virial="-1.6415519014606355 0.25240716736998003 0.001678422592276238 0.25240716736998003 -1.6415519014606355 -0.001678422592276238 0.001678422592276238 -0.001678422592276238 -2.0410749166519055" vasp_energy=-32.38782174 pbc="T T T"
      46       0.00000000       0.00000000       0.00000000      -0.02632000       0.02632000       0.03648200 
      46       2.04300002      -2.04300002       4.08600000      -0.05955900       0.05955900       0.16636300 
      46       2.04300000      -0.00000000       6.12900004       0.06880300      -0.06880300      -0.22244200 
      47       2.04300000       0.00000002       2.04299998      -0.00208000       0.00208000      -0.00535300 
      47       0.00000002       2.04300000       2.04299998      -0.07720400       0.07720400      -0.36658500 
      47       0.00000000       0.00000000       4.08599996       0.18156600      -0.18156600       0.18685000 
      47      -2.04300002       2.04300000       4.08600002      -0.17695500       0.17695500       0.01149300 
      47      -0.00000002       2.04300002       6.12900000       0.00616600      -0.00616600       0.00392700 
      47       0.00000000      -0.00000002       8.17200002       0.08558300      -0.08558300       0.18926500 
6
Lattice="2.02475 2.02475 0.0 -2.02475 2.02475 4.0495 4.0495 -4.0495 4.0495" Properties=Z:I:1:pos:R:3:vasp_force:R:3 uuid=8bd03035-8b9f-47ec-b7de-68fee1e122a1 vasp_virial="-1.1374814324215832 -0.0047548077080564405 0.047793029255900996 -0.0047548077080564405 -1.1374814324215832 -0.047793029255900996 0.047793029255900996 -0.047793029255900996 -1.2250866506420253" vasp_energy=-24.0805736 pbc="T T T"
      46       0.00000000       0.00000000       0.00000000       0.08013300      -0.08013300       0.18072600 
      46       2.02475000       0.00000000       2.02475000      -0.13277600       0.13277600      -0.15060500 
      46       0.00000000       2.02475000       2.02475000       0.03789900      -0.03789900      -0.04492000 
      47       2.02475000      -2.02475000       4.04950000       0.07527300      -0.07527300      -0.02104200 
      47      -0.00000000       0.00000000       4.04950000      -0.15204800       0.15204800      -0.14510900 
      47       2.02475000      -0.00000000       6.07425000       0.09151800      -0.09151800       0.18095000 
9
Lattice="2.055166666665 2.055166666665 0.0 -6.165499999994999 4.11033333333 -2.055166666665 -4.11033333333 2.055166666665 6.165499999994999" Properties=Z:I:1:pos:R:3:vasp_force:R:3 uuid=46918fd4-2fed-4819-8014-8384f7311f46 vasp_virial="-1.508120525690274 0.3286457368674222 0.0434802495526179 0.3286457368674222 -1.508120525690274 -0.0434802495526179 0.0434802495526179 -0.0434802495526179 -1.7736079940419134" vasp_energy=-29.80575064 pbc="T T T"
      46       0.00000000       0.00000000       0.00000000       0.00540900      -0.00540900       0.04183200 
      46      -2.05516663       4.11033331       2.05516665      -0.00540900       0.00540900      -0.04183200 
      47      -4.11033335       4.11033333      -0.00000002       0.00000000       0.00000000      -0.00000000 
      47      -2.05516669       2.05516667       4.11033335      -0.16071600       0.16071600      -0.01099200 
      47      -6.16550002       6.16550002       4.11033333      -0.09588300       0.09588300      -0.01814800 
      47      -2.05516665       2.05516665       0.00000000      -0.00700800       0.00700800       0.17694100 
      47       0.00000002       2.05516667       2.05516665       0.00700800      -0.00700800      -0.17694100 
      47      -6.16550004       4.11033335       2.05516669       0.09588300      -0.09588300       0.01814800 
      47      -4.11033331       4.11033333       4.11033335       0.16071600      -0.16071600       0.01099200 
6
Lattice="2.02475 2.02475 0.0 -4.0495 2.02475 6.07425 4.0495 -2.02475 2.02475" Properties=Z:I:1:pos:R:3:vasp_force:R:3 uuid=e8b283ee-b859-4f99-af64-e19de9e065e9 vasp_virial="-0.9924081957254735 0.06609543303695141 -0.0018408715511970609 0.06609543303695141 -0.9924081957254735 0.0018408715511970609 -0.0018408715511970609 0.0018408715511970609 -1.1020603531382662" vasp_energy=-24.0828649 pbc="T T T"
      46       0.00000000       0.00000000       0.00000000       0.02620500      -0.02620500       0.19003300 
      46       2.02475000       0.00000000       2.02475000      -0.11587600       0.11587600       0.00046200 
      46       0.00000000       0.00000000       4.04950000       0.09093700      -0.09093700      -0.19022500 
      47       0.00000000       2.02475000       2.02475000       0.07696600      -0.07696600      -0.18265600 
      47      -2.02475000       2.02475000       4.04950000      -0.09115700       0.09115700       0.01001900 
      47       0.00000000       2.02475000       6.07425000       0.01292500      -0.01292500       0.17236700 
9
Lattice="0.0 0.0 -4.11033333333 4.11033333333 2.055166666665 2.055166666665 2.055166666665 -8.22066666666 -2.055166666665" Properties=Z:I:1:pos:R:3:vasp_force:R:3 uuid=d5c5a925-7055-4c03-b710-d86ebcf334f8 vasp_virial="-1.5660447805389295 -0.08914889609965262 0.0 -0.08914889609965262 -1.6056729052573464 0.0 0.0 0.0 -1.619923816700935" vasp_energy=-29.85103833 pbc="T T T"
      46       0.00000000       0.00000000       0.00000000       0.04873100      -0.03434700      -0.00000000 
      46       2.05516665      -2.05516665       0.00000000      -0.04873100       0.03434700       0.00000000 
      47       2.05516665       0.00000000      -2.05516669      -0.08544500      -0.10071300       0.00000000 
      47       4.11033333       0.00000002       0.00000002       0.08544500       0.10071300      -0.00000000 
      47       4.11033333      -2.05516663      -2.05516667      -0.09825900       0.10856400       0.00000000 
      47       2.05516667      -4.11033337      -2.05516667      -0.01277500       0.19408300       0.00000000 
      47       4.11033335      -4.11033335       0.00000000      -0.00000000       0.00000000       0.00000000 
      47       2.05516667      -6.16550002      -4.11033335       0.01277500      -0.19408300      -0.00000000 
      47       4.11033335      -6.16550000      -2.05516665       0.09825900      -0.10856400      -0.00000000 
6
Lattice="2.02475 2.02475 0.0 0.0 0.0 12.1485 2.02475 -2.02475 0.0" Properties=Z:I:1:pos:R:3:vasp_force:R:3 uuid=b85ff116-f275-4a21-ac43-cedd136d3cdf vasp_virial="-1.1825153303217892 0.0 0.0 0.0 -1.1825153303217892 0.0 0.0 0.0 -0.9956789911428489" vasp_energy=-24.00644332 pbc="T T T"
      46       0.00000000       0.00000000       0.00000000       0.00000000       0.00000000       0.32632000 
      46       2.02475000       0.00000000       2.02475000      -0.00000000      -0.00000000      -0.37370600 
      46       2.02475000       0.00000000       6.07425000       0.00000000       0.00000000       0.05875600 
      47       0.00000000       0.00000000       4.04950000       0.00000000       0.00000000      -0.02059600 
      47       0.00000000       0.00000000       8.09900000       0.00000000       0.00000000      -0.38755300 
      47       2.02475000       0.00000000      10.12375000       0.00000000       0.00000000       0.39677900 
9
Lattice="4.11033333333 2.055166666665 2.055166666665 -2.055166666665 -2.055166666665 4.11033333333 2.055166666665 -6.165499999994999 0.0" Properties=Z:I:1:pos:R:3:vasp_force:R:3 uuid=c6cbbe60-fd0e-45a7-84ac-fde08a9ad68b vasp_virial="-1.672272730365508 0.011501762099889548 -0.03335257451383945 0.011501762099889548 -1.5885041311545351 0.09656643065381236 -0.03335257451383945 0.09656643065381236 -1.5098515438119717" vasp_energy=-29.8592628 pbc="T T T"
      46       0.00000000       0.00000000       0.00000000      -0.01053500      -0.03987500      -0.04575500 
      46       2.05516667      -2.05516665       4.11033335       0.01053500       0.03987500       0.04575500 
      47       2.05516669       0.00000002       2.05516667       0.09113100      -0.01015100      -0.09277500 
      47       0.00000000      -2.05516665       2.05516665      -0.09113100       0.01015100       0.09277500 
      47      -0.00000002      -4.11033331       4.11033333      -0.09037200       0.18688400      -0.09019100 
      47       4.11033335      -2.05516669       2.05516667       0.00534900      -0.00250700      -0.00521600 
      47       2.05516667      -4.11033335       2.05516665      -0.00000000      -0.00000000       0.00000000 
      47       4.11033333      -4.11033335       4.11033335      -0.00534900       0.00250700       0.00521600 
      47       2.05516665      -6.16550002       4.11033333       0.09037200      -0.18688400       0.09019100 
9
Lattice="0.0 0.0 -4.11033333333 4.11033333333 2.055166666665 2.055166666665 2.055166666665 -8.22066666666 -2.055166666665" Properties=Z:I:1:pos:R:3:vasp_force:R:3 uuid=bf90cc35-5d17-43ad-9744-4ea7e5b5ded2 vasp_virial="-1.6501576329312877 0.025498140737977966 0.0 0.025498140737977966 -1.6130680097175347 0.0 0.0 0.0 -1.473601586289927" vasp_energy=-29.88896819 pbc="T T T"
      46       0.00000000       0.00000000       0.00000000      -0.00151800       0.01165200       0.00000000 
      46       4.11033333      -2.05516663      -2.05516667       0.00151800      -0.01165200      -0.00000000 
      47       2.05516665       0.00000000      -2.05516669      -0.00155600       0.00724500       0.00000000 
      47       4.11033333       0.00000002       0.00000002      -0.00000000      -0.00000000      -0.00000000 
      47       2.05516665      -2.05516665       0.00000000       0.00155600      -0.00724500      -0.00000000 
      47       2.05516667      -4.11033337      -2.05516667      -0.08984800       0.07677900       0.00000000 
      47       4.11033335      -4.11033335       0.00000000       0.07567300       0.10083100       0.00000000 
      47       2.05516667      -6.16550002      -4.11033335      -0.07567300      -0.10083100      -0.00000000 
      47       4.11033335      -6.16550000      -2.05516665       0.08984800      -0.07677900      -0.00000000 
6
Lattice="0.0 0.0 -4.0495 4.0495 2.02475 2.02475 4.0495 -4.0495 0.0" Properties=Z:I:1:pos:R:3:vasp_force:R:3 uuid=363d6ad5-f3c0-4197-b6e3-9afc882b1acc vasp_virial="-0.9969814652731284 -0.01599525270827355 0.0 -0.01599525270827355 -0.9971176188934296 0.0 0.0 0.0 -0.8682423110709736" vasp_energy=-24.07417107 pbc="T T T"
      46       0.00000000       0.00000000       0.00000000       0.08973300      -0.10913700      -0.00000000 
      46       2.02475000      -0.00000000      -2.02475000      -0.10421600      -0.07625100      -0.00000000 
      46       2.02475000      -2.02475000       0.00000000       0.00366900       0.18116600       0.00000000 
      47       4.04950000       0.00000000       0.00000000       0.02377400       0.17969300      -0.00000000 
      47       4.04950000      -2.02475000      -2.02475000      -0.08809900      -0.09275200      -0.00000000 
      47       6.07425000      -2.02475000       0.00000000       0.07513900      -0.08271800      -0.00000000 
9
Lattice="0.0 0.0 -4.11033333333 6.165499999994999 2.055166666665 0.0 0.0 -6.165499999994999 -2.055166666665" Properties=Z:I:1:pos:R:3:vasp_force:R:3 uuid=7cc32e0a-eae7-40b2-8a26-319f9b2b2b2d vasp_virial="-1.7799664380720368 -0.04239190238427156 0.0 -0.04239190238427156 -1.5376902160947807 0.0 0.0 0.0 -1.5445148159909168" vasp_energy=-29.8649895 pbc="T T T"
      46       0.00000000       0.00000000       0.00000000       0.05880400      -0.06741000       0.00000000 
      46       2.05516665      -2.05516665      -4.11033333      -0.05880400       0.06741000      -0.00000000 
      47       2.05516665       0.00000000      -2.05516665      -0.17653900      -0.16646300      -0.00000000 
      47       4.11033335       0.00000002      -4.11033333       0.00000000       0.00000000       0.00000000 
      47       0.00000000      -2.05516665      -2.05516665       0.17653900       0.16646300       0.00000000 
      47       4.11033335      -2.05516669      -2.05516667      -0.09478400      -0.09034700      -0.00000000 
      47       0.00000000      -4.11033335      -4.11033335       0.07919600      -0.08620600       0.00000000 
      47       2.05516665      -4.11033335      -2.05516667      -0.07919600       0.08620600      -0.00000000 
      47       4.11033335      -4.11033333      -4.11033335       0.09478400       0.09034700       0.00000000 
9
Lattice="0.0 1.982166666665 1.982166666665 -1.982166666665 0.0 1.982166666665 11.89299999999 -11.89299999999 11.89299999999" Properties=Z:I:1:pos:R:3:vasp_force:R:3 uuid=b399d6c5-bfc6-46cb-b2e0-c60c7cea7469 vasp_virial="13.3042433717136 0.010068910340547722 -0.010068910340547722 0.010068910340547722 13.3042433717136 0.010068910340547722 -0.010068910340547722 0.010068910340547722 13.3042433717136" vasp_energy=-26.32288955 pbc="T T T"
      46       0.00000000       0.00000000       0.00000000       0.00000000       0.00000000       0.00000000 
      47      -0.00000000       0.00000000       3.96433333      -0.21001400       0.21001400      -0.21001400 
      47       1.98216667      -1.98216667       3.96433333      -0.02360100       0.02360100      -0.02360100 
      47       3.96433333      -3.96433333       3.96433333      -0.00257000       0.00257000      -0.00257000 
      47       3.96433333      -3.96433333       7.92866667      -0.00624600       0.00624600      -0.00624600 
      47       5.94650000      -5.94650000       7.92866667       0.00624600      -0.00624600       0.00624600 
      47       7.92866667      -7.92866667       7.92866667       0.00257000      -0.00257000       0.00257000 
      47       7.92866667      -7.92866667      11.89300000       0.02360100      -0.02360100       0.02360100 
      47       9.91083333      -9.91083333      11.89300000       0.21001400      -0.21001400       0.21001400 
9
Lattice="1.982166666665 1.982166666665 0.0 0.0 0.0 3.96433333333 9.910833333325 -7.92866666666 1.982166666665" Properties=Z:I:1:pos:R:3:vasp_force:R:3 uuid=95ba119f-12de-4e29-bbb3-1ed94c356474 vasp_virial="13.374536755165092 0.21713690894369755 0.0 0.21713690894369755 13.374536755165092 0.0 0.0 0.0 13.276962469348451" vasp_energy=-26.3745185 pbc="T T T"
      46       0.00000000       0.00000000       0.00000000      -0.00000000       0.00000000       0.00000000 
      47       1.98216667       0.00000000       1.98216667      -0.19699600       0.19699600       0.00000000 
      47       3.96433333       0.00000000       3.96433333      -0.12443400       0.12443400       0.00000000 
      47       3.96433333      -1.98216667       1.98216667      -0.01609500       0.01609500       0.00000000 
      47       5.94650000      -1.98216667       3.96433333      -0.01531500       0.01531500       0.00000000 
      47       5.94650000      -3.96433333       1.98216667       0.01531500      -0.01531500       0.00000000 
      47       7.92866667      -3.96433333       3.96433333       0.01609500      -0.01609500      -0.00000000 
      47       7.92866667      -5.94650000       1.98216667       0.12443400      -0.12443400      -0.00000000 
      47       9.91083333      -5.94650000       3.96433333       0.19699600      -0.19699600      -0.00000000 
6
Lattice="4.0495 2.02475 2.02475 -4.0495 2.02475 2.02475 2.02475 -4.0495 2.02475" Properties=Z:I:1:pos:R:3:vasp_force:R:3 uuid=67a36246-3c3f-4490-ae85-959df7b88190 vasp_virial="-1.025069521947067 0.005090528963593898 0.005090528963593898 0.005090528963593898 -0.9652508329766084 0.014431662045909278 0.005090528963593898 0.014431662045909278 -0.9652508329766084" vasp_energy=-24.10032377 pbc="T T T"
      46       0.00000000       0.00000000       0.00000000       0.00000000      -0.11311500       0.11311500 
      46       2.02475000       0.00000000       2.02475000      -0.00000000       0.12096200      -0.12096200 
      46       0.00000000       2.02475000       2.02475000      -0.00000000       0.00126400      -0.00126400 
      47       0.00000000      -2.02475000       2.02475000      -0.00000000      -0.00398100       0.00398100 
      47      -2.02475000       0.00000000       2.02475000      -0.00000000       0.08586200      -0.08586200 
      47       0.00000000      -0.00000000       4.04950000      -0.00000000      -0.09099200       0.09099200 
9
Lattice="4.13466666667 2.067333333335 2.067333333335 -2.067333333335 -2.067333333335 4.13466666667 2.067333333335 -6.202000000005 0.0" Properties=Z:I:1:pos:R:3:vasp_force:R:3 uuid=e06d9552-0161-415f-9838-1722a7ef11ec vasp_virial="-1.5015580855039208 0.05555234348006455 0.04412998595692283 0.05555234348006455 -1.371410511021071 0.04496479978128732 0.04412998595692283 0.04496479978128732 -1.3550715864681107" vasp_energy=-27.18478321 pbc="T T T"
      46       0.00000000       0.00000000       0.00000000       0.00000000      -0.00000000       0.00000000 
      47       2.06733335       0.00000002       2.06733333       0.00702200       0.06942700      -0.08904300 
      47       0.00000000      -2.06733331       2.06733331      -0.07951000       0.09141200      -0.00922700 
      47       2.06733333      -2.06733331       4.13466669      -0.00108900       0.08397200       0.08051600 
      47      -0.00000002      -4.13466665       4.13466667      -0.09274200       0.09679800       0.00611500 
      47       4.13466669      -2.06733335       2.06733333       0.09274200      -0.09679800      -0.00611500 
      47       2.06733333      -4.13466669       2.06733331       0.00108900      -0.08397200      -0.08051600 
      47       4.13466667      -4.13466669       4.13466669       0.07951000      -0.09141200       0.00922700 
      47       2.06733331      -6.20200002       4.13466667      -0.00702200      -0.06942700       0.08904300 
9
Lattice="0.0 0.0 -4.13466666667 6.202000000005 2.067333333335 0.0 0.0 -6.202000000005 -2.067333333335" Properties=Z:I:1:pos:R:3:vasp_force:R:3 uuid=36b6007b-9a6e-4e37-b6e6-f01f55110482 vasp_virial="-1.5361854879404617 -0.048744789131085146 0.0 -0.048744789131085146 -1.406870741993452 0.0 0.0 0.0 -1.416855750625179" vasp_energy=-27.18589404 pbc="T T T"
      46       0.00000000       0.00000000       0.00000000       0.00000000      -0.00000000       0.00000000 
      47       2.06733331       0.00000000      -2.06733331      -0.18134600      -0.00595500       0.00000000 
      47       4.13466669       0.00000002      -4.13466667       0.08838400       0.09955500       0.00000000 
      47       0.00000000      -2.06733331      -2.06733331      -0.00958700       0.16496800       0.00000000 
      47       2.06733331      -2.06733331      -4.13466667      -0.09274700       0.10030700      -0.00000000 
      47       4.13466669      -2.06733335      -2.06733333       0.09274700      -0.10030700       0.00000000 
      47       0.00000000      -4.13466669      -4.13466669       0.00958700      -0.16496800       0.00000000 
      47       2.06733331      -4.13466669      -2.06733333      -0.08838400      -0.09955500      -0.00000000 
      47       4.13466669      -4.13466667      -4.13466669       0.18134600       0.00595500       0.00000000 
9
Lattice="1.982166666665 1.982166666665 -3.96433333333 3.96433333333 5.946499999995 1.982166666665 1.982166666665 -3.96433333333 1.982166666665" Properties=Z:I:1:pos:R:3:vasp_force:R:3 uuid=b0958229-1477-4646-9613-69350129d05a vasp_virial="-0.6901359589889511 0.07285173362837725 0.07285173362837725 0.07285173362837725 -0.6901359589889511 0.07285173362837725 0.07285173362837725 0.07285173362837725 -0.6901359589889511" vasp_energy=-44.45922624 pbc="T T T"
      46       0.00000000       0.00000000       0.00000000       0.11539400      -0.05374800       0.07730000 
      46       3.96433331       1.98216667      -1.98216669      -0.07730000      -0.11539400       0.05374800 
      46       5.94650002       1.98216669       0.00000000      -0.00374000      -0.00374000      -0.00374000 
      46       1.98216667       0.00000002      -1.98216669      -0.05374800       0.07730000       0.11539400 
      46       3.96433333      -0.00000002      -0.00000002       0.05374800      -0.07730000      -0.11539400 
      46       3.96433333       3.96433335       0.00000002       0.00374000       0.00374000       0.00374000 
      46       1.98216667      -1.98216669       0.00000002       0.07730000       0.11539400      -0.05374800 
      46       1.98216665       1.98216665       0.00000000      -0.11539400       0.05374800      -0.07730000 
      47       3.96433335       1.98216667       1.98216669      -0.00000000      -0.00000000      -0.00000000 
9
Lattice="1.994333333335 1.994333333335 -3.98866666667 3.98866666667 5.983000000005 1.994333333335 1.994333333335 -3.98866666667 1.994333333335" Properties=Z:I:1:pos:R:3:vasp_force:R:3 uuid=f514894d-c55e-4cc6-bc6d-0dbd5d6c8329 vasp_virial="-1.073788178628395 0.387118722691862 0.387118722691862 0.387118722691862 -1.073788178628395 0.387118722691862 0.387118722691862 0.387118722691862 -1.073788178628395" vasp_energy=-42.08638952 pbc="T T T"
      46       0.00000000       0.00000000       0.00000000       0.04483800       0.03435900       0.24014800 
      46       3.98866665       1.99433333      -1.99433335      -0.03435900      -0.24014800      -0.04483800 
      46       5.98300002       1.99433335       0.00000000      -0.00000000       0.00000000       0.00000000 
      46       1.99433333       0.00000002      -1.99433335       0.03435900       0.24014800       0.04483800 
      46       3.98866667      -0.00000002      -0.00000002      -0.04483800      -0.03435900      -0.24014800 
      46       1.99433333      -1.99433335       0.00000002       0.24014800       0.04483800       0.03435900 
      46       1.99433331       1.99433331      -0.00000000      -0.24014800      -0.04483800      -0.03435900 
      47       3.98866667       3.98866669       0.00000002       0.00534700       0.00534700       0.00534700 
      47       3.98866669       1.99433333       1.99433335      -0.00534700      -0.00534700      -0.00534700 
9
Lattice="2.018666666665 2.018666666665 -4.03733333333 4.03733333333 6.0559999999950005 2.018666666665 2.018666666665 -4.03733333333 2.018666666665" Properties=Z:I:1:pos:R:3:vasp_force:R:3 uuid=5e6062c6-f713-4a70-aa67-ccea1d598711 vasp_virial="-1.4977332270134123 0.18998895840239738 0.2437031480515089 0.18998895840239738 -1.5726425307419911 0.20940964939681297 0.2437031480515089 0.20940964939681297 -1.547178635292808" vasp_energy=-37.37052759 pbc="T T T"
      46       0.00000000       0.00000000       0.00000000      -0.02583700      -0.11753900       0.12718600 
      46       4.03733331       2.01866667      -2.01866669      -0.07637200      -0.17525900      -0.05967300 
      46       6.05600002       2.01866669       0.00000000       0.07637200       0.17525900       0.05967300 
      46       2.01866667       0.00000002      -2.01866669       0.02583700       0.11753900      -0.12718600 
      46       2.01866667      -2.01866669       0.00000002       0.00000000      -0.00000000      -0.00000000 
      47       4.03733333      -0.00000002      -0.00000002      -0.05029700      -0.06197800      -0.14973800 
      47       4.03733333       4.03733335       0.00000002       0.15931300       0.07330500       0.07119400 
      47       2.01866665       2.01866665      -0.00000000      -0.15931300      -0.07330500      -0.07119400 
      47       4.03733335       2.01866667       2.01866669       0.05029700       0.06197800       0.14973800 
6
Lattice="2.02475 0.0 -2.02475 -2.02475 4.0495 -2.02475 6.07425 2.02475 4.0495" Properties=Z:I:1:pos:R:3:vasp_force:R:3 uuid=6b390c3a-fbd9-42c6-b611-8cd8dc7578a4 vasp_virial="-1.1514343808253373 0.04211560980114532 -0.03809068497086847 0.04211560980114532 -1.2448307907038005 0.04211560980114532 -0.03809068497086847 0.04211560980114532 -1.1514343808253373" vasp_energy=-24.09209536 pbc="T T T"
      46       0.00000000       0.00000000       0.00000000       0.05362300      -0.02254200       0.05362300 
      46       2.02475000       4.04950000      -2.02475000      -0.13085200      -0.15863000      -0.13085200 
      46       0.00000000       2.02475000      -2.02475000       0.06662000       0.16779600       0.06662000 
      47       4.04950000       4.04950000       0.00000000       0.09176500       0.18247500       0.09176500 
      47       2.02475000       2.02475000       0.00000000      -0.15158700      -0.13909400      -0.15158700 
      47       4.04950000       2.02475000       2.02475000       0.07043000      -0.03000500       0.07043000 
9
Lattice="2.067333333335 2.067333333335 -4.13466666667 4.13466666667 6.202000000005 2.067333333335 2.067333333335 -4.13466666667 2.067333333335" Properties=Z:I:1:pos:R:3:vasp_force:R:3 uuid=7f5eecf5-c4e9-41ac-8fcc-c27b9e9f2360 vasp_virial="-1.4558081041113704 -0.019685128360252303 -0.019685128360252303 -0.019685128360252303 -1.4558081041113704 -0.019685128360252303 -0.019685128360252303 -0.019685128360252303 -1.4558081041113704" vasp_energy=-27.18270874 pbc="T T T"
      46       0.00000000       0.00000000       0.00000000       0.00000000       0.00000000      -0.00000000 
      47       4.13466665       2.06733333      -2.06733335      -0.09527000       0.01122900      -0.07990900 