4
properties=Z:I:1:pos:R:3:vasp_force:R:3 vasp_energy=-15.92576701 vasp_virial="0.20350669      -0.00000000       0.00000000      -0.00000000       0.00160580      -0.00229358       0.00000000      -0.00229358       0.11599654" uuid=cdb1d4ba-09e2-4be7-ad69-4f8def5a62fa cutoff=-1.00000000 nneightol=1.20000000 pbc="T T T" Lattice="2.85923500       0.00000000       0.00000000       0.00000000       5.70596800       0.00000000       0.00000000       0.00000000       4.05180900"
      46      0.00000000     -0.13214451      0.00000000     -0.00000000      1.23304500     -0.00016300
      46      1.42961750      1.44965252      2.02590450      0.00000000     -0.61622800      0.00045300
      47      0.00000000      2.87196776      0.00000000     -0.00000000     -0.92285800     -0.00008700
      47      1.42961750      4.26049224      2.02590450     -0.00000000      0.30604100     -0.00020300
4
properties=Z:I:1:pos:R:3:vasp_force:R:3 vasp_energy=-13.98744822 vasp_virial="-0.10288382      -2.05864739       1.10164270      -2.05864739     -13.15632103       0.60194880       1.10164270       0.60194880      -4.22105611" uuid=7b5165d3-ad81-4807-b1b3-30db10b1ad64 cutoff=-1.00000000 nneightol=1.20000000 pbc="T T T" Lattice="2.97773600       0.00000000       0.00000000       0.00000000       5.53979600       0.00000000       0.20221200       0.20221200       4.05071100"
      46      0.00000000     -0.11546597      0.00000000      0.06084300      1.11520700     -0.16792000
      46      1.36813267      1.78328167      2.02535550     -0.16639200     -7.65944000      0.03457900
      47      0.14888680      2.78648969      0.00000000     -0.77465600     -0.61423000      0.19094200
      47      1.81181533      3.96237151      2.02535550      0.88020500      7.15846300     -0.05760000
4
properties=Z:I:1:pos:R:3:vasp_force:R:3 vasp_energy=-5.75272168 vasp_virial="-14.24991354     -18.02739759       1.21626445     -18.02739759     -41.18448910      -0.90880544       1.21626445      -0.90880544     -17.00505045" uuid=55f351fd-d0d1-408f-b520-af244e87b408 cutoff=-1.00000000 nneightol=1.20000000 pbc="T T T" Lattice="3.09623700       0.00000000       0.00000000       0.00000000       5.37362400       0.00000000       0.40442500       0.40442500       4.04961200"
      46      0.00000000     -0.09956251      0.00000000     -0.09486900      1.08234700     -0.25624600
      46      1.32305029      2.10042906      2.02480600     -9.93029200    -27.59284800     -0.07681300
      47      0.30962370      2.70111659      0.00000000     -2.24329900      0.69912400      0.39032100
      47      2.17761171      3.68076351      2.02480600     12.26846000     25.81137600     -0.05726300
4
properties=Z:I:1:pos:R:3:vasp_force:R:3 vasp_energy=4.43797241 vasp_virial="-52.77951503     -22.00224179      -0.17630007     -22.00224179     -30.10766843      -5.36048994      -0.17630007      -5.36048994     -34.47218460" uuid=bc5449e5-9b18-443e-9d0a-8141f711eafc cutoff=-1.00000000 nneightol=1.20000000 pbc="T T T" Lattice="3.21473800       0.00000000       0.00000000       0.00000000       5.20745100       0.00000000       0.60663700       0.60663700       4.04851400"
      46      0.00000000     -0.08442320      0.00000000     -0.31700800      1.07454200     -0.24945700
      46      1.29827991      2.40109327      2.02425700    -20.16643200    -29.88052600     -0.26801300
      47      0.48221070      2.61585365      0.00000000     -3.16755100      1.64029500      0.45698800
      47      2.52309509      3.41566095      2.02425700     23.65099000     27.16568900      0.06048200
4
properties=Z:I:1:pos:R:3:vasp_force:R:3 vasp_energy=9.45960604 vasp_virial="-99.86986103      -5.03866157      -2.98815208      -5.03866157     -12.04935332      -9.73639176      -2.98815208      -9.73639176     -46.19252450" uuid=1f838df0-22a3-4916-b688-628d4bd1ff7b cutoff=-1.00000000 nneightol=1.20000000 pbc="T T T" Lattice="3.33323900       0.00000000       0.00000000       0.00000000       5.04127900       0.00000000       0.80884900       0.80884900       4.04741600"
      46      0.00000000     -0.07005361      0.00000000     -0.55203600      0.95500400     -0.18666300
      46      1.29773255      2.68527556      2.02370800     -9.33670000    -18.62939900      0.13218600
      47      0.66664780      2.53070189      0.00000000     -1.50447000      0.80762200     -0.07232800
      47      2.84435545      3.16706556      2.02370800     11.39320600     16.86677300      0.12680400
4
properties=Z:I:1:pos:R:3:vasp_force:R:3 vasp_energy=9.17160611 vasp_virial="-104.42059827      -0.56876901      -4.04476423      -0.56876901      -5.44014975     -11.14374658      -4.04476423     -11.14374658     -45.53256521" uuid=4a25bdec-a6d5-4179-b3af-0a22aa69bbd6 cutoff=-1.00000000 nneightol=1.20000000 pbc="T T T" Lattice="3.45174000       0.00000000       0.00000000       0.00000000       4.87510700       0.00000000       1.01106100       1.01106100       4.04631700"
      46      0.00000000     -0.05645374      0.00000000     -0.89209400      0.81217700     -0.15425200
      46      1.32531875      2.95297559      2.02315850     10.02224600      0.58897300      0.79750000
      47      0.86293500      2.44566568      0.00000000      1.58807400     -1.02553400     -1.35161400
      47      3.13748225      2.93497182      2.02315850    -10.71822600     -0.37561700      0.70836700
4
properties=Z:I:1:pos:R:3:vasp_force:R:3 vasp_energy=3.66524532 vasp_virial="-79.47655944     -11.28772550      -2.16961999     -11.28772550     -12.09961711      -8.93357147      -2.16961999      -8.93357147     -31.73172952" uuid=1b0484c2-55a7-4231-930f-036a80078088 cutoff=-1.00000000 nneightol=1.20000000 pbc="T T T" Lattice="3.57024100       0.00000000       0.00000000       0.00000000       4.70893500       0.00000000       1.21327400       1.21327400       4.04521900"
      46      0.00000000     -0.04362357      0.00000000     -1.11276100      0.58236700     -0.10207700
      46      1.38494954      3.20419856      2.02260950     22.82210400     15.40738900      0.94169500
      47      1.07107230      2.36073509      0.00000000      3.06119200     -1.84272800     -1.84393000
      47      3.39856546      2.71939016      2.02260950    -24.77053500    -14.14702800      1.00431200
4
properties=Z:I:1:pos:R:3:vasp_force:R:3 vasp_energy=-5.08203429 vasp_virial="-46.49173360     -16.85734241      -0.89463355     -16.85734241     -17.62255783      -5.58271440      -0.89463355      -5.58271440     -18.41510869" uuid=771101cd-d101-41dc-9f55-648c0bd0546e cutoff=-1.00000000 nneightol=1.20000000 pbc="T T T" Lattice="3.68874200       0.00000000       0.00000000       0.00000000       4.54276200       0.00000000       1.41548600       1.41548600       4.04412100"
      46      0.00000000     -0.03156311      0.00000000     -1.14610600      0.36211900     -0.08472200
      46      1.48053445      3.43893328      2.02206050     18.90711000     16.77215000      0.76517900
      47      1.29105970      2.27591468      0.00000000      3.09811400     -1.36327300     -1.20660100
      47      3.62369355      2.52031412      2.02206050    -20.85911800    -15.77099600      0.52614500
4
properties=Z:I:1:pos:R:3:vasp_force:R:3 vasp_energy=-12.12914463 vasp_virial="-17.24996523      -8.41827952      -0.95550355      -8.41827952     -10.72703342      -2.98822486      -0.95550355      -2.98822486      -7.94133043" uuid=7f268f5c-3090-4451-8877-d8518335f9a6 cutoff=-1.00000000 nneightol=1.20000000 pbc="T T T" Lattice="3.80724300       0.00000000       0.00000000       0.00000000       4.37659000       0.00000000       1.61769800       1.61769800       4.04302200"
      46      0.00000000     -0.02027236      0.00000000     -0.94716700      0.14197500     -0.04631500
      46      1.61598452      3.65718629      2.02151100      6.93621700      8.72256600      0.60448100
      47      1.52289720      2.19120543      0.00000000      2.35606300     -0.52261200     -0.60194700
      47      3.80895648      2.33774507      2.02151100     -8.34511300     -8.34192900      0.04378000
4
properties=Z:I:1:pos:R:3:vasp_force:R:3 vasp_energy=-15.28361002 vasp_virial="-3.24801788      -1.68767508      -0.79759217      -1.68767508      -1.72317004      -1.53779785      -0.79759217      -1.53779785      -1.67343906" uuid=de5a281a-8651-402e-9ec4-560b82e89f35 cutoff=-1.00000000 nneightol=1.20000000 pbc="T T T" Lattice="3.92574400       0.00000000       0.00000000       0.00000000       4.21041800       0.00000000       1.81991000       1.81991000       4.04192400"
      46      0.00000000     -0.00975133      0.00000000     -0.55963700      0.02527300     -0.01770800
      46      1.79521027      3.85895703      2.02096200      1.32248200      2.53101600      0.27950600
      47      1.76658480      2.10661107      0.00000000      1.25898800     -0.07350600     -0.17495000
      47      3.95044373      2.17167833      2.02096200     -2.02183400     -2.48278200     -0.08684800
4
properties=Z:I:1:pos:R:3:vasp_force:R:3 vasp_energy=-16.08306865 vasp_virial="0.33660839       0.00010519      -0.00075696       0.00010519       0.33891804      -0.00078129      -0.00075696      -0.00078129       0.45042699" uuid=41de1546-912e-44fb-a20a-7323072dc181 cutoff=-1.00000000 nneightol=1.20000000 pbc="T T T" Lattice="4.04424600       0.00000000       0.00000000       0.00000000       4.04424600       0.00000000       2.02212300       2.02212300       4.04082500"
      46      0.00000000      0.00000000      0.00000000     -0.00115100      0.00000300      0.00008300
      46      2.02212300      4.04424600      2.02041250      0.00115100     -0.00000300     -0.00008300
      47      2.02212300      2.02212300      0.00000000      0.00009900     -0.00000200      0.00022500
      47      4.04424600      2.02212300      2.02041250     -0.00009900      0.00000200     -0.00022500
