5
Lattice="2.021958645864393 2.022074519968508 0.0004729010050569 -4.040977699143361 6.063749531656774 2.034801004416961 0.000464705050734 0.0004769511579424 4.069097564636751" Properties=Z:I:1:pos:R:3:vasp_force:R:3 uuid=8dcd8386-480d-4597-92ae-8e3d5c7f0cec vasp_virial="0.002753350502311381 -0.0004789563727164351 7.057211992354842e-05 -0.0004789563727164351 0.0036962147809958476 4.773996347769451e-05 7.057211992354842e-05 4.773996347769451e-05 -0.0009973501065666179" vasp_energy=-18.81814485 pbc="T T T"
      47      -0.00956309       4.05453490       4.06963147       0.00008300       0.00011800      -0.00000700 
      47      -2.00899114       4.03176597       2.03474000      -0.00008500      -0.00011600       0.00000700 
      47      -1.98441540       6.02963657       4.06959319      -0.00018400      -0.00023400      -0.00014500 
      46       2.02242328       2.02255154       4.06957046       0.00000100      -0.00000100       0.00000000 
      46      -0.03413900       2.05666450       2.03477828       0.00018500       0.00023300       0.00014500 
5
Lattice="0.0045519862871655 0.000359298173472 4.057810784195225 2.0257290230778553 4.036539125114077 -2.0262838122458224 -4.057861733126478 2.0206044641001615 2.0245654124543297" Properties=Z:I:1:pos:R:3:vasp_force:R:3 uuid=3e0180cf-62f8-43a9-8af6-7d16ddd2c794 vasp_virial="-5.707597042445895e-06 -0.00021014334565368974 -0.0008276015711546548 -0.00021014334565368974 -0.0006013731792904357 0.00033778597042111614 -0.0008276015711546548 0.00033778597042111614 -0.00024179456561634424" vasp_energy=-18.8927315 pbc="T T T"
      47      -0.00896427       4.04176349       0.00023733       0.00038600       0.00007300       0.00001200 
      47      -2.01861643       2.01573941       4.05585510      -0.00038500      -0.00007300      -0.00001200 
      47      -2.01043855       4.04201159       2.02723830      -0.00013700      -0.00004300      -0.00003200 
      46      -0.00000002      -0.00000003      -0.00000002       0.00000000       0.00000000      -0.00000000 
      46      -0.01714218       2.01549132       2.02885405       0.00013600       0.00004300       0.00003200 
6
Lattice="2.01448888474246 2.014498649592149 -4.1272311392e-06 -2.020202638427235 2.020220860601405 -4.034407721231737 -4.032279183898571 4.0322869159562424 4.026249404127012" Properties=Z:I:1:pos:R:3:vasp_force:R:3 uuid=cef21d45-52b9-426f-bd43-09a61fa719d9 vasp_virial="0.00021231594433175264 0.00032461021546675476 7.179469793877184e-05 0.00032461021546675476 0.0004896766577362387 -0.0002638608556724093 7.179469793877184e-05 -0.0002638608556724093 0.00037185971752902344" vasp_energy=-24.1264531 pbc="T T T"
      47      -2.03648400       2.03653878      -3.99617955      -0.00004500      -0.00007400      -0.00008400 
      47      -2.02012228       4.03462979      -2.01953379      -0.00004500       0.00004600      -0.00003200 
      47      -4.01882709       4.01880933      -0.04402137       0.00009000       0.00004100       0.00002700 
      46      -4.02312300       6.03761768       1.97783383      -0.00010900       0.00018100      -0.00008900 
      46      -0.00280750       4.03179498      -0.00230817       0.00006100      -0.00003800       0.00001500 
      46      -2.02996069       4.04448983       2.04251991       0.00004800      -0.00015500       0.00016200 
6
Lattice="0.001811687809853 -0.0008281093513459 4.053180017165526 2.000177801111726 4.018380196171426 -2.026496323231513 -4.03192349644226 4.03284756632867 -0.0026286154993305" Properties=Z:I:1:pos:R:3:vasp_force:R:3 uuid=0513b43c-4cdc-4172-960a-d69dfaa6217f vasp_virial="-0.0006109164040460157 0.0005605695245165952 0.00010192173173029006 0.0005605695245165952 -0.0006096884313745663 3.745316647920297e-05 0.00010192173173029006 3.745316647920297e-05 -0.0009240494352655814" vasp_energy=-24.11118411 pbc="T T T"
      47       1.96352121       4.01591188       2.02689351       0.00013900       0.00006200       0.00004700 
      47      -0.00407652       2.01102869       2.02615699      -0.00006900      -0.00011500       0.00014900 
      47       0.02860075       4.02452252      -0.00107209      -0.00008400      -0.00004000      -0.00008800 
      46      -1.99041260       2.02406709      -0.00115642       0.00010000       0.00002700       0.00002500 
      46      -2.02003805       4.02746436       2.02485769       0.00000600       0.00007600      -0.00005900 
      46      -2.05143507       6.03178064      -0.00220013      -0.00009100      -0.00001000      -0.00007500 
6
Lattice="2.035651359244954 2.035573113999181 -3.36259639558e-05 -4.063095617956193 4.062940760290641 -0.0021591595304486 0.0036214114540282 2.0318492182955064 6.085283989673473" Properties=Z:I:1:pos:R:3:vasp_force:R:3 uuid=c0c031b9-cc65-43cd-ae7d-32ff7f92467f vasp_virial="-0.00041280914094285107 -0.0021293914439198206 -0.0006873869104893136 -0.0021293914439198206 -0.0015010670284816916 -0.0002211701942342216 -0.0006873869104893136 -0.0002211701942342216 0.000568005271556069" vasp_energy=-21.64434559 pbc="T T T"
      47      -0.00775604       2.04329907       2.01933392      -0.00016000      -0.00018600      -0.00054900 
      47       0.01424520       4.05662357       0.00767563       0.00003300       0.00016800       0.00044600 
      47      -2.01614444       4.05173630       1.99880281       0.00030600      -0.00028100      -0.00026200 
      47      -2.02638460       6.09734663       4.05498698      -0.00006900       0.00003300       0.00004200 
      46       2.02300281       2.04844164       0.02814521      -0.00012400       0.00028700       0.00028600 
      46       0.00514629       4.06589559       4.05609102       0.00001300      -0.00002200       0.00003600 
6
Lattice="1.9767610861953444 3.992019068715589 1.983280685965583 -3.9528937619213136 1.9939822211126013 1.98666362551669 -1.9803987475600897 -1.9931987945062597 3.964605009327957" Properties=Z:I:1:pos:R:3:vasp_force:R:3 uuid=c57754a1-00a1-460c-88f1-807c9ba9cf2c vasp_virial="0.0010914965895475427 0.00013519341135950796 -0.0004921976578066935 0.00013519341135950796 0.0008538839271581045 -0.0007362481016894416 -0.0004921976578066935 -0.0007362481016894416 -8.369115941302874e-05" vasp_energy=-28.82713717 pbc="T T T"
      47       1.96224540       3.99125574       1.99681234      -0.00026100       0.00001400      -0.00008000 
      46      -0.00493818       1.99549417       1.98825161       0.00013400      -0.00002000      -0.00027600 
      46      -1.97773532       0.00028753       1.98372930      -0.00000400      -0.00010900      -0.00002700 
      46      -1.97388523       1.99709027       3.96256592      -0.00008300       0.00013900       0.00031300 
      46      -3.94096423       0.00120678       3.95400072       0.00023700      -0.00004900      -0.00000700 
      46      -3.95605100       1.99667175       5.95101341      -0.00002300       0.00002600       0.00007800 
2
Lattice="2.0086009427097546 2.008584584894453 0.0004022580240743 -2.007307504918098 2.007296482407645 -5.6675297645e-06 0.0004058375324962 0.0004373491501763 4.065461115833787" Properties=Z:I:1:pos:R:3:vasp_force:R:3 uuid=85f95bcc-e805-438f-acce-29e4f5335363 vasp_virial="-1.5141389711104607e-05 -0.0002150486565725803 5.3608704112289286e-05 -0.0002150486565725803 -4.2150355141723634e-05 0.00012256341131015755 5.3608704112289286e-05 0.00012256341131015755 0.0007271959328819698" vasp_energy=-8.01712484 pbc="T T T"
      47      -2.00730750       2.00729648      -0.00000567      -0.00000000      -0.00000000      -0.00000000 
      46       0.00084964       2.00815921       2.03292885       0.00000000       0.00000000       0.00000000 
6
Lattice="-0.0008570226737745 -0.0002904112321232 3.938378780726097 -1.9907992429621388 5.9738868515512795 1.3833973992e-05 -3.9823562225625486 -0.0002510153153199 0.000855696999402" Properties=Z:I:1:pos:R:3:vasp_force:R:3 uuid=ae8f4625-fe32-4926-bfa0-a31119a02ce9 vasp_virial="-0.001856180529384874 8.889081300141804e-05 -0.0006549849379051856 8.889081300141804e-05 -0.0008456323394740165 -0.0001269033317191297 -0.0006549849379051856 -0.0001269033317191297 -0.000996512798384318" vasp_energy=-28.86367574 pbc="T T T"
      47      -3.98234313       0.02518397       0.00068099      -0.00002200       0.00005900      -0.00052800 
      46      -3.98269150       1.98918417       1.96998668       0.00004200       0.00004200       0.00056500 
      46      -3.98192939       3.98241717       0.00058197      -0.00002100       0.00010500       0.00002200 
      46      -1.99168141       0.00159499       1.96953473       0.00000800      -0.00018500      -0.00064200 
      46      -1.99129014       1.96567231       0.00046238      -0.00000900      -0.00011700       0.00057600 
      46      -1.99119523       3.98240693       1.96934403       0.00000200       0.00009500       0.00000700 
4
Lattice="2.0101621681122768 2.0101623875734087 0.0007243249140589 -2.0091106615182057 2.009110662984537 2.320378081e-06 0.0013962941488977 0.001424026677507 8.116447086891542" Properties=Z:I:1:pos:R:3:vasp_force:R:3 uuid=06479ad2-83ce-4537-acf2-889db5286d8a vasp_virial="-0.000545853811207534 0.000777452954493489 -0.0003375782565563834 0.000777452954493489 -0.0005495364830972398 -0.00020336532546487578 -0.0003375782565563834 -0.00020336532546487578 -0.000611732719456719" vasp_energy=-16.03647713 pbc="T T T"
      47       2.01002259       2.01004225       0.04664793      -0.00002500      -0.00008200       0.00003200 
      47       0.00100676       2.01010405       1.98359646       0.00004500       0.00010800      -0.00001100 
      46      -2.00839558       2.00981621       4.00513287       0.00006500       0.00010300       0.00014300 
      46       0.00156369       2.01071963       6.14074667      -0.00008500      -0.00012900      -0.00016400 
4
Lattice="0.0001316662000421 0.0001237007619541 4.042282373467496 -2.0212132898300235 4.015510738769389 2.021214546569841 -4.042198565119536 0.0001802696012346 -0.0001322474942256" Properties=Z:I:1:pos:R:3:vasp_force:R:3 uuid=5e0b7600-e251-45f6-bb1f-cf949ecac28b vasp_virial="0.00022113221333764507 0.0003558590618340992 0.00015397354113880473 0.0003558590618340992 0.0009995995051059105 0.0004762532668734837 0.00015397354113880473 0.0004762532668734837 0.0017031275467986405" vasp_energy=-16.08327789 pbc="T T T"
      47      -2.02115053       4.01550293       2.02128686       0.00057600       0.00002100      -0.00056800 
      47      -4.04228550       2.00792933       2.02100611      -0.00057500      -0.00002100       0.00057100 
      46      -2.02103711       0.00014834       2.02109420       0.00007600      -0.00017200       0.00000100 
      46      -2.02105379       2.00789683       4.04226711      -0.00007600       0.00017200      -0.00000400 
4
Lattice="2.0243748881440466 2.0234310318126827 -0.0007763221687504 -4.037511660991489 2.011430429957242 2.003524170829693 2.020512595922132 -2.021109733417547 4.020174612853853" Properties=Z:I:1:pos:R:3:vasp_force:R:3 uuid=89bd08b3-edfe-400c-bc0c-174f0561a8b0 vasp_virial="0.0017404992314533018 -0.0001293807944340728 0.00020471644688935565 -0.0001293807944340728 0.00296101868780764 0.0002358333468165377 0.00020471644688935565 0.0002358333468165377 0.002568781975567635" vasp_energy=-16.07274561 pbc="T T T"
      47      -0.00612413       0.00614796       0.02727455       0.00012100      -0.00016900       0.00030700 
      47       0.01077771       2.01186300       1.97894900      -0.00012300       0.00017100      -0.00030900 
      46      -2.00729970       2.00492423       3.99641656       0.00035000       0.00000600       0.00039400 
      46      -0.00504598       0.00340762       4.03350566      -0.00034800      -0.00000800      -0.00039100 
4
Lattice="-0.0001243152469356 0.0010706101295922 3.9574562545826337 -1.9767362518306402 4.04489751275024 1.979886639564045 -3.9535753572981864 -0.0001262452066555 0.0001243217311231" Properties=Z:I:1:pos:R:3:vasp_force:R:3 uuid=1ef6e886-5b43-4998-89d8-b64aa3620968 vasp_virial="-0.00015442915684848042 0.000228286579689058 3.9495948043089625e-07 0.000228286579689058 0.0007168514569820764 0.000197874699695879 3.9495948043089625e-07 0.000197874699695879 -5.687416518204905e-05" vasp_energy=-18.42634869 pbc="T T T"
      47      -0.00009230       0.00058010       3.95720023      -0.00017700      -0.00001300       0.00012000 
      46      -3.95358074       2.02262165       1.97940061       0.00000000       0.00000100       0.00000000 
      46      -1.97688183       0.00096274       1.97904628       0.00017700       0.00001200      -0.00011900 
      46      -1.97685521       2.02322017       3.95806664       0.00000000       0.00000000      -0.00000000 
4
Lattice="0.0036434258547853 3.9826008393798102 -0.0037141197376258 -3.982461074661722 -0.0036432584786444 0.0036133295565781 -0.0036114486355963 -0.0037121602573446 3.9823976073427785" Properties=Z:I:1:pos:R:3:vasp_force:R:3 uuid=edb8ad8e-39fc-47a6-9672-9a345edab053 vasp_virial="-0.0005629627487211494 -0.0003812219733987055 0.0010794061666656214 -0.0003812219733987055 -9.658674610411877e-05 -0.00038319313148246303 0.0010794061666656214 -0.00038319313148246303 -0.00023851012813466067" vasp_energy=-18.45471373 pbc="T T T"
      47      -3.98246107      -0.00364326       0.00361333      -0.00000000      -0.00000000       0.00000000 
      46       0.00001599       1.98944434       1.98934174      -0.00000000       0.00000000       0.00000000 
      46      -1.99303626      -0.00367771       1.99300547       0.00000000      -0.00000000      -0.00000000 
      46      -1.98940882       1.98947879      -0.00005039       0.00000000       0.00000000      -0.00000000 
6
Lattice="1.9748923289227631 1.9749094496856037 4.4162977983e-06 -1.9752029485359017 1.9752130818413471 -3.982236094562616 -3.970417707972205 3.970453583704046 4.00236164606332" Properties=Z:I:1:pos:R:3:vasp_force:R:3 uuid=6e3c484c-0b6e-4382-836c-7f8508d56591 vasp_virial="-0.0007016177713334674 -0.0012728515734941321 -0.0001379848283622486 -0.0012728515734941321 -0.0005221205581673221 0.00022334832387448713 -0.0001379848283622486 0.00022334832387448713 -0.0009062562879723955" vasp_energy=-28.87532358 pbc="T T T"
      47      -1.98817500       1.98818789      -3.95216983       0.00044200      -0.00039100       0.00024800 
      46      -1.98520055       3.96006410      -1.97031675      -0.00015100       0.00032300      -0.00098300 
      46      -3.96376995       3.96380140       0.01335715       0.00004600      -0.00004900       0.00005100 
      46      -3.96726420       5.94226539       1.99715782       0.00008600      -0.00026300       0.00091800 
      46       0.00587629       3.94393588      -0.02329012      -0.00044400       0.00040100      -0.00023800 
      46      -1.98869921       3.96362550       2.00453137       0.00002100      -0.00002200       0.00000500 
4
Lattice="2.0541757753437837 2.0505734110896734 0.0024594663769738 -4.0924660428116075 2.0371578119258382 2.024815347309553 2.048926363263206 -2.040443804274755 4.058080283308016" Properties=Z:I:1:pos:R:3:vasp_force:R:3 uuid=b4594fb1-f1ee-4357-b1f5-50a3bd316f1c vasp_virial="0.0008323715382607546 0.000231025569802985 -0.0006268267298330988 0.000231025569802985 -0.00019153038967122465 0.0008493587125109742 -0.0006268267298330988 0.0008493587125109742 -0.0015955203414518648" vasp_energy=-13.55783941 pbc="T T T"
      47       0.00663040       2.04639801       2.02877234      -0.00000000       0.00000000       0.00000000 
      47      -2.03296632       2.03403458       4.03127338      -0.00041800      -0.00051700      -0.00006300 
      47       0.00400570       0.00088941       4.05658275       0.00000000      -0.00000000       0.00000000 
      46      -0.00794865       0.00818803       0.02381184       0.00041800       0.00051700       0.00006300 
4
Lattice="2.0649075376367034 2.071244007267498 -0.0003568696376169 -2.0444400133307736 2.0499933785764997 4.01945411305798 2.0429962493109746 -2.0500556945067605 4.018847017966262" Properties=Z:I:1:pos:R:3:vasp_force:R:3 uuid=8272b6c5-c22f-46f4-b163-d788c406dcd8 vasp_virial="-0.0010644392911052791 -0.0001605578818985617 0.0023671668672504875 -0.0001605578818985617 -0.00015078848696822595 2.3361596572542047e-05 0.0023671668672504875 2.3361596572542047e-05 -0.002361220279032022" vasp_energy=-13.557415 pbc="T T T"
      47       0.01023376       2.06061869       2.00954862      -0.00000000       0.00000000       0.00000000 
      47       2.05395189       0.01059416       2.00924507       0.00000000      -0.00000000       0.00000000 
      47      -0.00072188      -0.00003116       4.01915057       0.00000000       0.00000000       0.00000000 
      46      -2.04444001       2.04999338       4.01945411       0.00000000      -0.00000000      -0.00000000 
5
Lattice="2.0001198023394284 1.9997679050591806 0.0002129381915546 -6.056659426583935 6.056455470706025 8.05448970351682 0.0003256935231851 -1.9998796966847712 1.9996534204542333" Properties=Z:I:1:pos:R:3:vasp_force:R:3 uuid=bf24bf58-39f3-46d5-b4a6-0b51bbea902f vasp_virial="0.0013322425987705945 -0.001385109368563078 -0.00030662726479640666 -0.001385109368563078 0.0022108379634171124 -0.00018880989211601394 -0.00030662726479640666 -0.00018880989211601394 0.00434061354648575" vasp_energy=-21.16818071 pbc="T T T"
      47       1.96663892       0.03399719       2.03441939       0.00037800       0.00010600       0.00041600 
      47      -0.01116424       2.01115415       2.01101090       0.00001300      -0.00003400      -0.00004300 
      46      -1.98887709       1.98866026       3.98678782      -0.00048000       0.00009600      -0.00044500 
      46      -2.00155001       4.00153061       6.00106210      -0.00020300      -0.00010300      -0.00047700 
      46      -4.07702995       4.07723335       8.07529828       0.00029200      -0.00006600       0.00054900 
5
Lattice="-0.0002582478646128 9.72368982179e-05 4.024068524830882 2.0098412933071756 3.9797073977394146 -2.01206757988488 -4.038855492514598 1.9995112906831423 2.012338948731947" Properties=Z:I:1:pos:R:3:vasp_force:R:3 uuid=087c8d31-490e-4739-9e23-525b9a81af96 vasp_virial="-0.001992251972854236 0.00010142924177905306 0.0004193417906387716 0.00010142924177905306 -0.0014785456637444055 -0.00013422974285188117 0.0004193417906387716 -0.00013422974285188117 1.9680300643696863e-05" vasp_energy=-21.27382662 pbc="T T T"
      47       1.97906317       3.98115931       2.01209076      -0.00001800       0.00017500      -0.00022400 
      47      -0.00389272       1.99177470       2.01207843      -0.00000800      -0.00000100       0.00005200 
      46       0.02265252       3.98226572      -0.00006409       0.00007200      -0.00020000       0.00021900 
      46      -2.01939958       1.99319357       4.02428105      -0.00008700      -0.00003300      -0.00042600 
      46      -2.02738524       3.99004319       2.01229458       0.00004000       0.00005800       0.00037900 
5
Lattice="1.9921602529373366 1.9915754884671626 0.0003598237747316 -1.992162446715671 1.9915776051775615 -0.0004632068063238 0.0021007662249765 1.9913636956585288 10.181374265366525" Properties=Z:I:1:pos:R:3:vasp_force:R:3 uuid=63dcf3db-bd81-4083-99ff-88f43ec28140 vasp_virial="2.0674430919059217e-05 -0.00011446575167381565 -0.0002919633049301289 -0.00011446575167381565 0.00034642278149740687 -0.0008037815337800095 -0.0002919633049301289 -0.0008037815337800095 5.3955222154617945e-05" vasp_energy=-21.21606771 pbc="T T T"
      47      -0.00038814       3.98318651       0.07421830      -0.00025000      -0.00011400       0.00008400 
      47       0.00041181       1.99168731       2.03622946      -0.00000900       0.00006600      -0.00003400 
      46       0.00123283       3.98282151       3.99816277       0.00027500       0.00010000      -0.00002700 
      46       0.00123362       1.99132622       6.04668224       0.00023800       0.00007700       0.00004600 
      46       0.00170482       3.98316512       8.20714561      -0.00025400      -0.00012900      -0.00006900 
6
Lattice="2.0553456395930616 2.055097224209419 -8.9720483296e-06 -8.20079712508182 8.199780019322368 8.189236361178924 -0.0026442656271043 -2.052462931599046 2.0471777057533727" Properties=Z:I:1:pos:R:3:vasp_force:R:3 uuid=354b3255-d83f-4225-bf8d-59a6100760e7 vasp_virial="0.002680384663813254 -0.0015039613153427945 -0.0003889109586925956 -0.0015039613153427945 8.592218854836413e-05 0.00019057929038922871 -0.0003889109586925956 0.00019057929038922871 0.007293695554218278" vasp_energy=-18.93790809 pbc="T T T"
      47       0.00260280       2.05248715       2.04729889       0.00009700      -0.00009700       0.00025100 
      47      -2.00812942       2.00810340       4.05228243       0.00002700      -0.00057500       0.00069100 
      47      -2.02362863       4.07794383       6.11696930       0.00007400       0.00055300      -0.00031300 
      47      -4.09783674       6.15245531       6.14189826       0.00005000      -0.00000300       0.00004900 
      47      -6.17479020       6.17456268       8.21388416      -0.00017900      -0.00055300       0.00005400 
      46       2.01323913       2.09689779       0.04225510      -0.00006900       0.00067500      -0.00073100 
6
Lattice="2.071525765883177 2.069651385744928 -0.0031244564676531 -4.120157450409485 4.116414951633141 -0.0017502999492991 0.0024087123089686 2.0579883246962116 6.068440982714465" Properties=Z:I:1:pos:R:3:vasp_force:R:3 uuid=fdd546ed-d6cb-4478-8d39-23248ed0cc53 vasp_virial="-0.0010093239332418485 0.00036638071072223315 -0.000135696559526753 0.00036638071072223315 -0.00020677570975505223 -0.0005860799023369761 -0.000135696559526753 -0.0005860799023369761 0.001449368490564319" vasp_energy=-19.01223952 pbc="T T T"
      47       0.00461736       2.06212940       2.02154820      -0.00001900       0.00005000      -0.00003200 
      47       0.02228325       4.11131982       4.01139388       0.00000300       0.00036500       0.00029800 
      47       0.02454174       4.11491332       0.00708171      -0.00017000       0.00005900       0.00018900 
      47      -2.05547976       4.12029239       2.02061213      -0.00001200       0.00001800      -0.00000100 
      47      -2.06387781       6.19486628       4.03095186       0.00014300      -0.00013700      -0.00023400 
      46       2.05844208       2.08209836       0.02842061       0.00005600      -0.00035500      -0.00021900 
6
Lattice="0.0029322890222154 -0.0003140015840293 4.110667156868791 2.0544254305353173 4.068127345269053 -2.0541769982812816 -4.130811655682919 4.07748957677757 -0.0032555396382878" Properties=Z:I:1:pos:R:3:vasp_force:R:3 uuid=e97a9df1-70f3-4f0c-a552-aac97c36d0cb vasp_virial="-0.0007670559863527733 0.0004200390826700105 -0.001479183784971776 0.0004200390826700105 -0.00230956874071172 0.0001337662924810649 -0.001479183784971776 0.0001337662924810649 -0.0009408875451808237" vasp_energy=-19.0444047 pbc="T T T"
      47      -0.00176872       2.03544112       2.05516229       0.00000200      -0.00004800      -0.00001500 
      47       0.00413562       4.06552926      -0.00017212      -0.00038700      -0.00019100      -0.00000400 
      47      -2.04266974       2.04097052      -0.00138428      -0.00031300       0.00002300      -0.00004600 
      47      -2.06714129       4.07420611       2.05352971       0.00004500      -0.00005100      -0.00000500 
      47      -2.09450144       6.10765368      -0.00211042       0.00024000      -0.00000400       0.00001700 
      46       2.04698960       4.07336329       2.05630646       0.00041300       0.00027200       0.00005400 
5
Lattice="0.0043778082110278 0.0023947907124393 4.097224271817821 2.0467009216496974 4.096831952035109 -2.0440337825108825 -4.084338076659027 2.044578305325711 2.0454234342658095" Properties=Z:I:1:pos:R:3:vasp_force:R:3 uuid=14a2ef44-551a-45c8-912f-003117a5d7f3 vasp_virial="-0.0005594150409732695 -0.00011188300819465391 0.0004437847549921919 -0.00011188300819465391 0.00020663560365137044 -0.00023447252435051876 0.0004437847549921919 -0.00023447252435051876 -0.001222683209170285" vasp_energy=-16.30930503 pbc="T T T"
      47       0.00436341       2.04912494       2.04980291       0.00000100       0.00002700      -0.00000200 
      47       0.01399034       4.08649594       0.00255362       0.00014500       0.00017500      -0.00011800 
      47      -2.02816143       2.05812465       4.09597977      -0.00001000      -0.00009800      -0.00010900 
      47      -2.04723843       4.08461762       2.04899253      -0.00005400       0.00005200       0.00013600 
      46      -0.00509478       0.01164174       4.09712329      -0.00008300      -0.00015700       0.00009300 
6
Lattice="2.0552544407977615 2.069941185329933 -0.0011989153950865 -4.089490165990249 2.047756125023296 2.039888124136366 4.0905504593153 -2.053644299410616 6.12761262697313" Properties=Z:I:1:pos:R:3:vasp_force:R:3 uuid=14228f27-d2e8-42f0-98b5-2e28170db689 vasp_virial="0.0006068324594204603 -0.0005874448409086245 0.00025010027880268174 -0.0005874448409086245 0.0007987698826876346 -0.00013571332958285052 0.00025010027880268174 -0.00013571332958285052 0.0006675803307575458" vasp_energy=-18.99608535 pbc="T T T"
      47       0.00719628       2.06156735       2.04042177       0.00002900      -0.00004700       0.00003100 
      47      -2.02974386       2.04357169       4.04891092       0.00010800      -0.00007400      -0.00007000 
      47      -0.00048840      -0.00038437       4.04738395       0.00009500      -0.00003300      -0.00005500 
      47       4.09717656       0.01095248       4.08421477      -0.00000700      -0.00000500      -0.00004700 
      47       2.05033801      -0.00002663       6.16244727      -0.00009900       0.00001700       0.00005500 
      46      -0.01131897       0.00948142       0.03297537      -0.00012800       0.00014300       0.00008600 
5
Lattice="2.027457848755658 2.027736951827638 -0.000148785707399 -2.02745811843253 2.027737297881675 -0.0001485500219101 -6.6619565203e-06 2.0269966470112903 10.113600249347368" Properties=Z:I:1:pos:R:3:vasp_force:R:3 uuid=f07f28e2-2248-4b4f-9a8f-b16f75c9db91 vasp_virial="-0.002501740875157614 -8.823567402008184e-06 1.0380667531774333e-06 -8.823567402008184e-06 -0.0008117682009847529 4.9827204152516794e-05 1.0380667531774333e-06 4.9827204152516794e-05 -0.0015259581271708268" vasp_energy=-18.81608559 pbc="T T T"
      47      -0.00000080       2.02736720       2.03744075      -0.00000000      -0.00012200       0.00002000 
      47      -0.00000469       2.02751478       6.05326085       0.00000000       0.00012100      -0.00002400 
      47      -0.00000619       4.05521207       8.04614911       0.00000300       0.00009900       0.00000300 
      46       0.00000043       4.05514400       0.04425779      -0.00000300      -0.00009800      -0.00001400 
      46      -0.00000289       4.05517801       4.04520000      -0.00000000       0.00000100       0.00001500 
5
Lattice="2.0230211870243937 2.0230623307215585 0.0010364725904326 -6.080567831317221 6.0848248247527685 8.101597879851955 0.0010162387159872 -2.023045535550013 2.022227162110666" Properties=Z:I:1:pos:R:3:vasp_force:R:3 uuid=ca19b162-65a9-47f5-98c3-16eff789b30b vasp_virial="0.0017930342251900057 0.0007140035219569788 0.00019882331575886864 0.0007140035219569788 0.0017272775556551718 -0.0005032715180146363 0.00019882331575886864 -0.0005032715180146363 0.0007285010553977297" vasp_energy=-18.84735762 pbc="T T T"
      47      -0.01217833       2.03580817       2.03531234      -0.00030000      -0.00039000       0.00021400 
      47      -2.01923204       4.04590405       6.06519697       0.00031600       0.00036800      -0.00016700 
      47      -4.03205112       4.03623386       8.07752889       0.00023500      -0.00009300       0.00042800 
      46       2.00162443       0.02245766       2.04515571      -0.00021300       0.00007700      -0.00041000 
      46      -2.02718633       2.02929630       4.04979275      -0.00003800       0.00003900      -0.00006600 
5
Lattice="2.026859044091809 2.024989643919099 0.0007850125329583 -4.053797466393466 2.024277987788433 -2.0234030784902544 -0.0008600322034259 2.028210808942501 6.075844601550093" Properties=Z:I:1:pos:R:3:vasp_force:R:3 uuid=6355c402-8809-4d40-831e-54a536bec4cf vasp_virial="-0.000838369502455439 -0.00017690841605031224 -0.0007595129650957688 -0.00017690841605031224 -0.0006687241885303594 -0.0003823504475926104 -0.0007595129650957688 -0.0003823504475926104 -0.0006516040192351679" vasp_energy=-18.88934893 pbc="T T T"
      47      -0.00922051       4.06112327       4.08225526       0.00013900       0.00027600      -0.00003400 
      47      -2.01857797       2.01635517      -0.02902874      -0.00013900      -0.00027600       0.00003300 
      47      -2.01142508       4.03499468       2.01624875      -0.00002400       0.00001600      -0.00006000 
      46      -0.00086005       2.02821082       6.07584457       0.00000000      -0.00000000      -0.00000000 
      46      -0.01637333       2.04248375       2.03697783       0.00002400      -0.00001500       0.00006100 
6
Lattice="2.012090573340772 2.0119543975639296 -0.0003739885842991 -8.08383062599468 8.081781319161726 8.082955785664577 -0.0003583631062708 -2.011970034204138 2.01190372182084" Properties=Z:I:1:pos:R:3:vasp_force:R:3 uuid=044f3b34-e9bf-451f-9f99-1117170bf74d vasp_virial="0.004572401103120762 0.0009035760486472566 -0.0008355781222744799 0.0009035760486472566 0.007213906134827184 -8.882612003650998e-05 -0.0008355781222744799 -8.882612003650998e-05 0.002122025377975659" vasp_energy=-24.03900214 pbc="T T T"
      47       1.98531429       0.02616754       2.03748716      -0.00035300      -0.00141900       0.00143600 
      47       0.00570878       2.00609332       2.00630932      -0.00000600       0.00163600      -0.00140000 
      47      -2.01601154       4.02672562       6.03866983       0.00030300      -0.00012100       0.00016400 