5
Lattice="2.025232282676815 2.0258615804737214 0.0003684669545062 -4.05131933772357 6.078799818904123 2.0338904950134395 0.0003907501812618 0.0003435106149138 4.067529862385307" Properties=Z:I:1:pos:R:3:vasp_force:R:3 uuid=8fe6e00a-3eba-47f7-91a8-af4a18a1088c vasp_virial="-0.007032317943535045 -0.01094489128234184 -5.469580622749478e-05 -0.01094489128234184 -0.009496754698413882 0.00032661210004418317 -5.469580622749478e-05 0.00032661210004418317 0.006111344749152084" vasp_energy=-18.83954584 pbc="T T T"
      47      -0.01159041       4.06366317       4.06765014       0.00265000      -0.00317300      -0.00046300 
      47      -2.01410561       4.04134147       2.03413869      -0.00265200       0.00317500       0.00046300 
      47      -1.98985200       6.04314853       4.06795479       0.00422500      -0.00361700       0.00061100 
      46      -0.00000014       0.00000014       0.00000000       0.00000100      -0.00000100       0.00000000 
      46      -0.03584445       2.06185651       2.03383403      -0.00422400       0.00361600      -0.00061100 
4
Lattice="0.0011674192316058 0.0012482173504299 4.0467611353374435 -2.0225687763947984 4.020357227306051 2.024053117077254 -4.046230958613032 3.64975437046e-05 -0.0011678812200532" Properties=Z:I:1:pos:R:3:vasp_force:R:3 uuid=d93a1f65-8618-4352-999e-4859a5383e6c vasp_virial="0.0019723079496588953 -1.9718971377551966e-05 0.00020335189233100469 -1.9718971377551966e-05 0.0037194909760907393 -1.6432476147959974e-06 0.00020335189233100469 -1.6432476147959974e-06 0.0009744458355740263" vasp_energy=-16.10207801 pbc="T T T"
      47      -0.00018417       0.00024073      -0.00056138       0.00013700      -0.00012900       0.00047200 
      47      -4.04547147       2.01026869       2.02341773      -0.00013600       0.00014500      -0.00047300 
      46      -2.02255334       0.00054089       2.02274781      -0.00002400       0.00008800      -0.00013600 
      46      -2.02195510       2.01123399       4.04683883       0.00002300      -0.00010400       0.00013700 
4
Lattice="2.024610792493438 2.02428283357043 -0.0001879652477743 -4.037811121731911 2.0126857894320223 2.0062192444894853 2.0218486426789757 -2.0218967214479795 4.02749394931758" Properties=Z:I:1:pos:R:3:vasp_force:R:3 uuid=2e1cc4de-d106-494c-add7-46538846b1f1 vasp_virial="-0.0537731341269998 -0.004094186499148636 0.006578359602531422 -0.004094186499148636 -0.05322688691064386 -0.003371876130413511 0.006578359602531422 -0.003371876130413511 -0.0523642185043477" vasp_energy=-16.08788867 pbc="T T T"
      47      -0.00684879       0.00741762       0.02677865       0.00184200      -0.00152100       0.00729400 
      47       0.01186337       2.01166332       1.98306435      -0.00184000       0.00152000      -0.00730400 
      46       2.03187704      -0.00751255       1.99493906      -0.01026500       0.01019800       0.00855500 
      46      -0.00501359       0.00469656       4.04239617       0.01026300      -0.01019600      -0.00854500 
4
Lattice="7.4578095756e-05 1.36170017316e-05 3.963816098919222 -1.9790587213689632 4.040394550341905 1.9818850987361896 -3.9601404306766916 -0.0009724310455323 -7.465512479e-05" Properties=Z:I:1:pos:R:3:vasp_force:R:3 uuid=9e007889-72ff-4f7c-9fff-11b1cf04fe91 vasp_virial="0.0019981232664046684 0.008675426022731426 0.0004968584702472477 0.008675426022731426 0.0007157929196868715 -0.0006132540003290731 0.0004968584702472477 -0.0006132540003290731 0.0009240379837108176" vasp_energy=-18.45273968 pbc="T T T"
      47       0.00011414       0.00020980       0.00000312      -0.00005900      -0.00144400      -0.00007800 
      46      -3.95961603       2.01947136       1.98184058      -0.00000000      -0.00000000      -0.00000000 
      46      -1.98014707      -0.00068921       1.98186760       0.00005900       0.00144400       0.00007800 
      46      -1.97950853       2.01996438       3.96378596       0.00000000       0.00000000       0.00000000 
4
Lattice="8.611133e-09 3.983592314984378 6.4925426e-09 -3.9833440886218594 4.6375758e-09 0.0014563878218744 -0.0014557090394891 -3.1981693e-09 3.9891927028162875" Properties=Z:I:1:pos:R:3:vasp_force:R:3 uuid=29755cf5-84ea-460a-8b7c-f066b9238ee2 vasp_virial="-0.009121073769379179 0.0 -0.000655851271643829 0.0 -0.009038499723732454 -0.0 -0.000655851271643829 -0.0 -0.011938073508427672" vasp_energy=-18.4798396 pbc="T T T"
      47       0.00000000      -0.00000000       0.00000000      -0.00000000      -0.00000000      -0.00000000 
      46      -0.00072785       1.99179616       1.99459635       0.00000000      -0.00000000       0.00000000 
      46      -1.99239990       0.00000000       1.99532455      -0.00000000       0.00000000       0.00000000 
      46      -1.99167204       1.99179616       0.00072820       0.00000000       0.00000000      -0.00000000 
4
Lattice="1.977238678116087 1.9773301146042446 0.0001536159179264 -1.9800870752124209 1.9804777001070526 4.045980052078465 1.9800864707880506 -1.979877011495756 4.0456841213668495" Properties=Z:I:1:pos:R:3:vasp_force:R:3 uuid=3efa29e2-0f3c-4468-9c9c-f3db7da09278 vasp_virial="0.044160099176656024 -0.013077618903071395 0.0004765492554191675 -0.013077618903071395 0.04039832613304844 3.242907796213422e-05 0.0004765492554191675 3.242907796213422e-05 0.03503447754279934" vasp_energy=-18.5028375 pbc="T T T"
      47      -0.00000000       0.00000000      -0.00000000       0.00000000       0.00000000      -0.00000000 
      46      -0.00142420       1.97890391       2.02306683      -0.00000000      -0.00000000       0.00000000 
      46       1.97866257      -0.00127345       2.02291887       0.00000000      -0.00000000      -0.00000000 
      46      -0.00000030       0.00030034       4.04583209      -0.00000000       0.00000000      -0.00000000 
4
Lattice="2.060057783871328 2.0562276776117927 0.0004840122502154 -4.0989941364883755 2.0356170687741217 2.0236144842488724 2.0508352823875446 -2.0460472662398734 4.060190329007301" Properties=Z:I:1:pos:R:3:vasp_force:R:3 uuid=9097839e-86a9-4b95-a901-86cb9c8f62f1 vasp_virial="-0.0049629908043584475 -0.003881706897154579 -0.0006758024420024174 -0.003881706897154579 0.002547156964367471 0.00023706382192640005 -0.0006758024420024174 0.00023706382192640005 0.010611164273889064" vasp_energy=-13.57449515 pbc="T T T"
      47       0.00825509       2.04846748       2.02721783       0.00000000       0.00000000      -0.00000000 
      47       2.06395683      -0.00353465       2.00570598      -0.00457000       0.00442000       0.00139700 
      47       0.00364384      -0.00267000       4.05707099      -0.00000000       0.00000000      -0.00000000 
      46      -0.00851030       0.00862486       0.02463119       0.00457000      -0.00442000      -0.00139700 
4
Lattice="2.0668241273382097 2.0746392700387464 -0.0003644007538087 -2.047335034004007 2.054334028304133 4.023749174253486 2.046074956904201 -2.0546089713156963 4.023343536638732" Properties=Z:I:1:pos:R:3:vasp_force:R:3 uuid=8b99dac0-1496-4295-967b-f8d6640d63e7 vasp_virial="0.018595846378523875 0.01042761328567959 0.007960081774342558 0.01042761328567959 0.03196572973597577 0.0008155436905231471 0.007960081774342558 0.0008155436905231471 0.025234081972463063" vasp_energy=-13.57373684 pbc="T T T"
      47       0.00974455       2.06448665       2.01169238       0.00000000      -0.00000000       0.00000000 
      47       2.05644954       0.01001515       2.01148957      -0.00000000      -0.00000000      -0.00000000 
      47      -0.00063004      -0.00013747       4.02354636      -0.00000000       0.00000000      -0.00000000 
      46       0.00000000      -0.00000000      -0.00000000       0.00000000       0.00000000       0.00000000 
5
Lattice="2.0039137225685875 2.0018969412786176 0.0003503503156535 -6.050233334342584 6.045535432995947 8.051988612080375 -2.0878038292e-06 -2.001543258815316 2.0027461888717544" Properties=Z:I:1:pos:R:3:vasp_force:R:3 uuid=13f703ee-6208-404a-b385-80d041e049ca vasp_virial="-0.0816842460481195 0.05393608784113652 0.030309192951326547 0.05393608784113652 -0.08263006841283177 -0.035663304193489814 0.030309192951326547 -0.035663304193489814 -0.08308305427070464" vasp_energy=-21.18913644 pbc="T T T"
      47      -0.03549878       0.03494595       0.03420310       0.00251000      -0.00412200      -0.00569700 
      47      -0.00774682       2.00996047       2.01107107       0.00000900      -0.00007600      -0.00020600 
      46      -1.98374018       1.98296675       3.98796868      -0.00230400       0.00403200       0.00613500 
      46      -1.99427389       3.99513463       6.00088520      -0.00283000       0.00345600       0.00448100 
      46      -4.07138372       4.06877042       8.07604226       0.00261500      -0.00329000      -0.00471400 
5
Lattice="-0.0004025090303424 0.000130842651359 4.029582289239028 2.010178537619241 3.983230162561753 -2.0148631473245073 -4.043004615336615 2.0030958090192104 2.015256893997728" Properties=Z:I:1:pos:R:3:vasp_force:R:3 uuid=14844f80-9bdd-4c86-b042-3b8e101ce721 vasp_virial="0.006764862481696029 -0.02038116067397374 0.0001837782578098832 -0.02038116067397374 0.012780942474960059 0.000587786659276238 0.0001837782578098832 0.000587786659276238 0.0009857197464348281" vasp_energy=-21.2969511 pbc="T T T"
      47      -0.03059445       0.00009510      -0.00001310      -0.00209400      -0.00095500      -0.00008600 
      47      -0.00477198       1.99399015       2.01485551       0.00000600      -0.00000300      -0.00000000 
      46       0.02145605       3.98775296       0.00014180       0.00208800       0.00095800       0.00008600 
      46      -2.02114150       1.99663625       4.02974022      -0.00329200      -0.00532300      -0.00004200 
      46      -2.03140528       3.99443916       2.01522765       0.00329100       0.00532200       0.00004200 
5
Lattice="1.9957064666594548 1.9956594374314207 4.5021820474e-06 -1.9949258137047734 1.994878794514932 -0.0001152726863616 0.0006932030211966 1.9950298758364169 10.176737627918252" Properties=Z:I:1:pos:R:3:vasp_force:R:3 uuid=ed274e54-3734-4ca9-bd7d-987ec51cf152 vasp_virial="0.005813701121032858 0.0018586647777116797 -6.676020426066442e-05 0.0018586647777116797 0.007952556452990053 0.0012193852460034992 -6.676020426066442e-05 0.0012193852460034992 -0.012491238824468863" vasp_energy=-21.24012515 pbc="T T T"
      47       0.00027769       0.00019053       0.07607190       0.00070700      -0.00029700       0.00159500 
      47       0.00045162       1.99520814       2.03528791      -0.00007600       0.00016600      -0.00006000 
      46       0.00061800       3.99008469       3.99453143      -0.00063500       0.00087700      -0.00095800 
      46       0.00054717       1.99528530       6.04252469      -0.00042700      -0.00078200      -0.00019600 
      46       0.00105323       3.99036755       8.20483778       0.00043000       0.00003500      -0.00038100 
5
Lattice="-0.0012893373460076 0.0008916136894634 4.068475385532463 2.0321939567349405 4.036447646505925 -2.0339862749298905 -4.070068195764347 2.022055654727481 2.035972815291015" Properties=Z:I:1:pos:R:3:vasp_force:R:3 uuid=544c01a3-05a8-499a-ae29-854c0f6cb412 vasp_virial="0.047100456053303284 -0.008238382140094086 0.002878923210042374 -0.008238382140094086 0.06848510391489317 -0.0028815304580137933 0.002878923210042374 -0.0028815304580137933 0.04739872522123378" vasp_energy=-18.91247805 pbc="T T T"
      47      -0.01071018       4.04311413       0.00087463      -0.00161400      -0.00309200      -0.00010700 
      47      -2.02845333       2.01628076       4.06958733       0.00161300       0.00308900       0.00010700 
      47      -2.01827663       4.04341017       2.03579057       0.00046300       0.00076900       0.00018000 
      46      -0.00000016      -0.00000010      -0.00000002       0.00000100       0.00000100       0.00000000 
      46      -0.02088686       2.01598486       2.03467134      -0.00046300      -0.00076700      -0.00017900 
5
Lattice="1.9984340533056753 1.9985060465682916 0.0011637757450717 -4.018908676817175 2.0193764952530806 -2.025450156695286 0.003668425330127 1.9983259516074572 6.047898814114851" Properties=Z:I:1:pos:R:3:vasp_force:R:3 uuid=336877f0-99cd-40e3-b878-0dac7b6fcad2 vasp_virial="-0.021393116410945774 0.01510584385007833 -0.011880511977193078 0.01510584385007833 -0.01750764368264721 0.012615519381726057 -0.011880511977193078 0.012615519381726057 0.01754962965276162" vasp_energy=-21.30204735 pbc="T T T"
      47      -0.02123211       0.02235439       0.02007381      -0.00379300       0.00572700      -0.01038200 
      47      -0.00298233       2.00255249       2.01453672      -0.00012800       0.00012600      -0.00031100 
      46       0.01537166       3.98287111       4.00897102       0.00362700      -0.00560800       0.01030900 
      46      -2.00444347       2.00432832      -0.03341768      -0.00819100       0.00760600      -0.00671500 
      46      -2.02032615       4.02031068       2.03706099       0.00848500      -0.00785100       0.00709900 
5
Lattice="2.0070344221246614 2.0075797948780627 -2.55650185753e-05 -4.026485745140515 6.035126742596247 2.006026113626469 0.000327861698235 -0.0003790736316582 4.013817454652833" Properties=Z:I:1:pos:R:3:vasp_force:R:3 uuid=928d5292-4afc-46c5-9678-d7a688c19ce4 vasp_virial="-0.011575271357409494 -0.02337671512801836 -0.004745572848762672 -0.02337671512801836 -0.011960321036256749 0.0019414397079328685 -0.004745572848762672 0.0019414397079328685 0.014400655597466085" vasp_energy=-21.27019388 pbc="T T T"
      47      -0.03482507       0.03463564      -0.00019749      -0.00278600       0.00244000      -0.00042200 
      47       0.03003117       3.98510772       4.01366913       0.00267500      -0.00221000       0.00062000 
      46      -0.00229341       2.00996416       2.00674501       0.00024900      -0.00002600       0.00012700 
      46      -1.99601430       4.00428065       2.00643085       0.00102300      -0.00099100      -0.00066800 
      46      -2.03514531       6.05066676       4.01298851      -0.00116000       0.00078800       0.00034300 
5
Lattice="1.9734596659012351 1.9767937881814748 -0.0001269485008341 -1.972964792709609 1.9762975484673646 0.0006293433877116 -0.0016301514434265 1.9777544083661087 10.082343009064559" Properties=Z:I:1:pos:R:3:vasp_force:R:3 uuid=ee7a5207-e918-4c8a-9f85-a0411e8f36c5 vasp_virial="-0.09522486539936718 -0.0006817939166682355 0.0008982598038177616 -0.0006817939166682355 -0.1129402176286496 -0.0022073630261029912 0.0008982598038177616 -0.0022073630261029912 -0.07784329276931759" vasp_energy=-23.67573049 pbc="T T T"
      47       0.00003663      -0.00002468       0.07114381       0.00019100      -0.00011700       0.02210100 
      46      -0.00004557       1.97690653       2.04405919      -0.00002400      -0.00021400      -0.04902700 
      46      -0.00034644       3.95362304       4.00595869      -0.00003400      -0.00062200       0.04880600 
      46      -0.00091163       1.97726759       5.97832837      -0.00017300       0.00051200      -0.02172700 
      46      -0.00100356       3.95391901       8.06620075       0.00004000       0.00044000      -0.00015300 
5
Lattice="-5.57999985952e-05 -1.0810904369e-05 4.104154358412639 2.05329028610839 4.091478538886928 -2.0521158998237943 -4.101843470158946 2.0433804056268148 2.0521275215001866" Properties=Z:I:1:pos:R:3:vasp_force:R:3 uuid=63442ea3-a5ff-4966-aeb6-ae15f6a856e9 vasp_virial="0.014653728833656237 -0.001493370216316355 0.0002256982694684667 -0.001493370216316355 0.03594889793483814 -6.448521984813335e-06 0.0002256982694684667 -6.448521984813335e-06 0.019082251306726798" vasp_energy=-16.32578254 pbc="T T T"
      47       0.00087171       2.04531581       2.05204250       0.00016900      -0.00017300      -0.00006800 
      47       0.01158054       4.08078031       0.00002137       0.00190800       0.00215400      -0.00005900 
      47      -2.04029604       2.05409399       4.10412090      -0.00147600       0.00163200      -0.00001500 
      47      -2.05961683       4.07976480       2.05210916       0.00144300      -0.00149900       0.00001700 
      46      -0.00975735       0.00974136       0.00003803      -0.00204500      -0.00211500       0.00012500 
5
Lattice="2.0588961850747785 2.0588555514578086 -0.0002637225508974 -4.089662996280678 6.14816874189557 2.041952957917233 -0.0002746540148091 -0.0002638405056573 4.084144884496953" Properties=Z:I:1:pos:R:3:vasp_force:R:3 uuid=ac259ca5-3608-4495-b0e2-04c017932355 vasp_virial="-0.029218690394409864 -0.03181016401055284 0.000397076301540464 -0.03181016401055284 -0.029591050173797602 -0.00017785149635980184 0.000397076301540464 -0.00017785149635980184 -0.002817146209711302" vasp_energy=-16.28870136 pbc="T T T"
      47       0.00565869       2.05327404       2.04208504       0.00030800       0.00013400      -0.00017800 
      47       0.03342984       4.08374039       4.08389170      -0.00109300       0.00118500       0.00001600 
      47      -2.02690941       4.08536422       2.04190933      -0.00035600       0.00017300      -0.00000300 
      47      -2.05185701       6.16881891       4.08373900       0.00002300      -0.00044400       0.00005800 
      46      -0.02240504       0.02232334       0.00004317       0.00111900      -0.00104800       0.00010700 
5
Lattice="2.0360942821426913 2.0287812169969546 -0.000129720820182 -2.036040402375666 2.028727318822453 0.0001092801465273 -0.0005727702041924 2.028702827956242 10.107666718136779" Properties=Z:I:1:pos:R:3:vasp_force:R:3 uuid=d06e69bd-9607-448b-a48b-7b119f82d274 vasp_virial="0.015487556033453477 0.0005618382488916021 0.0015161293747919023 0.0005618382488916021 0.01419501534954701 0.0012477187085774542 0.0015161293747919023 0.0012477187085774542 0.018063777243352543" vasp_energy=-18.83970262 pbc="T T T"
      47      -0.00006336       2.02880428       2.03766338       0.00003700       0.00010100      -0.00628800 
      47      -0.00036252       2.02866311       6.04845766      -0.00003700      -0.00010100       0.00628700 
      47      -0.00040623       4.05754711       8.04176945      -0.00022700       0.00010000      -0.00722500 
      46      -0.00001966      -0.00007973       0.04435220       0.00022700      -0.00010000       0.00722400 
      46      -0.00018601       4.05748796       4.04304987       0.00000000       0.00000000       0.00000300 
5
Lattice="2.029745610968127 2.029745985688423 -2.074215695e-07 -6.091317892609823 6.09131816493044 8.105719406471557 -0.0003358494797009 -2.0294103466093625 2.0254007781304284" Properties=Z:I:1:pos:R:3:vasp_force:R:3 uuid=8c45473f-5f1f-4ebe-99ea-eec457bb1b06 vasp_virial="0.14199210002085136 -0.012604606195372372 -0.011517364487178857 -0.012604606195372372 0.14199210002085136 0.01151528065065141 -0.011517364487178857 0.01151528065065141 0.15038579355339277" vasp_energy=-18.86583335 pbc="T T T"
      47      -0.00874307       2.03848887       2.03407305      -0.01048300       0.01048200       0.01012500 
      47      -2.02291505       4.05266082       6.07072188       0.01011300      -0.01011300      -0.00900800 
      47      -4.03992409       4.03992402       8.08298096       0.00234800      -0.00234700      -0.00321900 
      46      -0.02152097       0.02152095       0.02182260      -0.00218600       0.00218600       0.00227800 
      46      -2.03071308       2.03071296       4.05264146       0.00020800      -0.00020800      -0.00017600 
5
Lattice="2.0248630922463082 2.026309707012625 -0.0007089725856015 -4.0554559740186855 2.032744400962186 -2.030328179669795 -0.0050203571530558 2.0292086176731754 6.097493773327201" Properties=Z:I:1:pos:R:3:vasp_force:R:3 uuid=95fa5a90-d8f1-4279-b7b3-1920fcba4cbe vasp_virial="0.10765973386928239 -0.002760947369449265 0.0005570927244609513 -0.002760947369449265 0.10162038970841261 -0.0012946667997304128 0.0005570927244609513 -0.0012946667997304128 0.09743802129574605" vasp_energy=-18.91099079 pbc="T T T"
      47      -0.01737327       4.06782762       4.09577542       0.01105600      -0.01267700       0.00035000 
      47      -2.01824004       2.02043517      -0.02931865      -0.01105700       0.01267700      -0.00035100 
      47      -2.01725359       4.04428090       2.02434462       0.00822700      -0.00788900      -0.02019400 
      46       0.00000002      -0.00000002      -0.00000004       0.00000000      -0.00000100      -0.00000000 
      46      -0.01835961       2.04398178       2.04211189      -0.00822700       0.00789000       0.02019500 
6
Lattice="2.0144372362340723 2.014438459631771 -4.131283214e-07 -8.08947332356424 8.089476567021277 8.094427531149462 0.0005329111224013 -2.014971804939758 2.0167365293190063" Properties=Z:I:1:pos:R:3:vasp_force:R:3 uuid=29f384d1-deed-47ab-a7a0-c44eadf881e6 vasp_virial="0.09977378515693708 0.02321411072895326 0.041368057304471496 0.02321411072895326 0.09977440052409667 -0.04136498046867347 0.041368057304471496 -0.04136498046867347 0.10519455446590086" vasp_energy=-24.06370923 pbc="T T T"
      47      -0.02624409       0.02624391       0.02587053      -0.00413900       0.00413900       0.00417100 
      47       0.00771682       2.00672133       2.00906632      -0.00489700       0.00489700       0.00517200 
      47      -4.03046436       4.03046601       4.03260684      -0.00263000       0.00263000       0.00195700 
      46      -2.00821559       2.00821602       4.02561418       0.00345600      -0.00345700      -0.00437600 
      46      -4.03165827       6.04609809       6.05071530       0.00565700      -0.00565700      -0.00503300 
      46      -6.10487752       6.10487936       8.12566788       0.00255200      -0.00255200      -0.00189200 
6
Lattice="-0.0002308768737959 -2.017293455993779 2.0198256504233734 2.018984864883831 4.034488413401421 6.059138045861415 -4.02675464850048 2.014689744567863 2.017679298341604" Properties=Z:I:1:pos:R:3:vasp_force:R:3 uuid=5097e230-46ec-4c86-b852-6a11ff953d09 vasp_virial="-0.005432952339731664 -0.010940884338450575 -0.00674079426042725 -0.010940884338450575 -0.006400312858140899 -0.006476521691865643 -0.00674079426042725 -0.006476521691865643 -0.009243394025968804" vasp_energy=-24.13413976 pbc="T T T"
      47      -0.00036342       0.00388422       0.00407732       0.00855000      -0.00200200      -0.00261100 
      47      -0.01461683      -0.01290396       4.02710487      -0.00387400       0.00150900       0.00197400 
      47      -1.99685093       0.00494875       2.02437957       0.00109700      -0.00227000      -0.00268200 
      46       0.01924235       2.02757222       6.06971425       0.00280300       0.00006500       0.00015900 
      46      -2.02454102       2.00219614       4.02478828       0.00194600       0.00295800       0.00315800 
      46      -2.01236424       4.03677018       6.06197417      -0.01052100      -0.00026000       0.00000100 
6
Lattice="2.0164417379154878 2.0181766378926294 -0.000676385389418 -2.0214557436264475 2.0245502276291063 -4.038796564851756 -4.034718671412041 4.036837364923042 4.028549111527115" Properties=Z:I:1:pos:R:3:vasp_force:R:3 uuid=04f224ad-85f7-4a50-b94b-c73c9b4ed913 vasp_virial="-0.007760754930642846 0.02396814190360931 0.002514472283756079 0.02396814190360931 -0.01625356361872594 -0.009349231544768872 0.002514472283756079 -0.009349231544768872 0.013984135401800156" vasp_energy=-24.14950099 pbc="T T T"
      47      -0.01693631       0.01603929       0.03981287       0.00269400      -0.00401400       0.00073300 
      47      -2.02123195       4.04182610      -2.02315193      -0.00000100       0.00000100      -0.00000000 
      47      -4.02051306       4.02488555      -0.04664499      -0.00269200       0.00401200      -0.00073200 
      46       0.01050010       2.00899651      -2.04974113      -0.00085500       0.00205500      -0.00483800 
      46      -2.01872476       2.02046249      -0.00341577      -0.00000100       0.00000100       0.00000100 
      46      -2.03150812       4.05010532       2.04223317       0.00085500      -0.00205400       0.00483500 
6
Lattice="2.0153252963541703 2.0142636395834033 -0.0009239772572828 -6.05326461541611 6.050087312265938 0.0004165903117596 -0.0010572565338768 -0.0007791380590758 4.046839973667448" Properties=Z:I:1:pos:R:3:vasp_force:R:3 uuid=a4e93f89-cd04-4f6d-9c3a-eafca63ceae4 vasp_virial="-0.005863181019177626 -0.008113228320685754 0.002094829146572445 -0.008113228320685754 -0.0018576902987540414 0.002932514427177716 0.002094829146572445 0.002932514427177716 -0.01600471642003482" vasp_energy=-24.08531133 pbc="T T T"
      47      -0.02133653       0.02105391       0.00009385      -0.00042400      -0.00013400       0.00024900 
      47       0.00854146       2.00502768       2.02289302      -0.00125300       0.00148000      -0.00041000 
      47      -2.00807964       4.02044569       2.02314117       0.00270900      -0.00232500      -0.00014000 
      46      -2.00421848       2.00329464       0.00007286      -0.00151100       0.00212900       0.00004000 
      46      -4.02612483       4.02409082       0.00030054       0.00180100      -0.00171200       0.00014000 
      46      -4.06054146       6.07153231       2.02341404      -0.00132200       0.00056200       0.00012100 
6
Lattice="2.0106031014997154 2.009190142512779 0.0001115281051477 -2.011287850557886 2.009874492623835 2.62711540579e-05 0.0002464403100402 0.0003576162676424 12.213838967984776" Properties=Z:I:1:pos:R:3:vasp_force:R:3 uuid=4250f4a2-28c6-4fd2-865d-320b733aa051 vasp_virial="0.03153684654369431 0.002672739426924275 -0.0008508651794795811 0.002672739426924275 0.034560775798499366 -0.003489101746120832 -0.0008508651794795811 -0.003489101746120832 0.0494185700078767" vasp_energy=-24.07358256 pbc="T T T"
      47       0.00010605      -0.00042821       0.05830994       0.00005800       0.00033000       0.01780700 
      47      -0.00036511       2.01007332       1.99678858       0.00039300       0.00022700       0.01113100 
      47      -0.00024791       2.00980502       6.08446631      -0.00027500      -0.00023700      -0.01639000 
      46       0.00019756       0.00022490       4.04052064      -0.00012600       0.00033200      -0.00563700 
      46      -0.00013735       0.00008581       8.10529049      -0.00020500       0.00028200       0.00268100 
      46       0.00003572       2.00973015      10.24942816       0.00015300      -0.00093400      -0.00959100 
6
Lattice="1.9854986060988062 1.988380357951271 -0.0006208849653238 -3.9714584455498647 1.9882374075708127 2.0209169968045844 3.9831980208247213 -2.0024553232504796 6.100851566639171" Properties=Z:I:1:pos:R:3:vasp_force:R:3 uuid=e5a24558-7dbd-4f94-8e51-033529c21b03 vasp_virial="0.0034152708898907225 0.06438885582693658 0.00019474617534751744 0.06438885582693658 -0.0021025374116222712 -0.0008228626976875043 0.00019474617534751744 -0.0008228626976875043 0.008979361461470872" vasp_energy=-26.4962251 pbc="T T T"
      47       0.00393613      -0.00441031       0.05159204      -0.01646200       0.01409500       0.00742300 
      47       0.00417140       1.98346217       2.05005766      -0.00528700       0.00543600      -0.00719100 
      46       1.98719675      -0.00219052       2.01020521       0.00529300      -0.00544200       0.00720400 
      46       0.00193382      -0.00269882       4.00929255       0.01645800      -0.01409100      -0.00743100 
      46       3.98358540      -0.01346479       4.04813141       0.00953700      -0.00851100       0.01343400 
      46       1.99098110      -0.00771921       6.11298376      -0.00953900       0.00851300      -0.01343900 
6
Lattice="-0.0002464604583603 -0.000283840580315 4.00144160164281 2.0260230783775577 3.95986819813729 -2.001130528351292 -4.060338046620949 3.9641798880992245 -4.16830320238e-05" Properties=Z:I:1:pos:R:3:vasp_force:R:3 uuid=6d2deb3b-b4ff-44b4-bb44-d28c33f781cf vasp_virial="0.008162934967369648 -0.03449542998307938 0.0018840321245776814 -0.03449542998307938 0.14360792516467735 -0.00025891141373231166 0.0018840321245776814 -0.00025891141373231166 0.1404094660257331" vasp_energy=-26.49961965 pbc="T T T"
      47      -0.03657607       0.01530506       0.00032337       0.00615300      -0.00158900      -0.00025100 
      47      -0.02202591       1.98297916       2.00066965       0.00443100       0.01338900      -0.00043100 
      46       0.01763350       3.95869510      -0.00037941      -0.00440200      -0.01341200       0.00043100 
      46      -1.99359298       1.96678485      -0.00034421      -0.00618400       0.00161300       0.00025100 
      46      -2.03020160       3.95830697       2.00057316      -0.01006000       0.00154000      -0.00011000 
      46      -2.03452882       5.94754730      -0.00032461       0.01006200      -0.00154100       0.00011000 
6
Lattice="2.0016108826546786 2.0013953179916006 8.94108e-11 -6.034947671768883 6.034280900001094 -1.00979051e-08 6.3987508e-09 -4.4906958e-09 3.9882098076320727" Properties=Z:I:1:pos:R:3:vasp_force:R:3 uuid=d09ae07b-a743-4dc2-a6bd-8d06864492b6 vasp_virial="-0.03311271584320336 -0.003683065802379294 0.0 -0.003683065802379294 -0.020978141493486764 -0.0 0.0 -0.0 0.09545544452782018" vasp_energy=-26.46322116 pbc="T T T"
      47      -0.04361075       0.04336179      -0.00000006      -0.00274200       0.00165500       0.00000100 
      47      -0.01512701       2.01658535       1.99410509       0.00342100      -0.00356800       0.00000000 
      46      -2.00154115       2.00125253      -0.00000019      -0.00344900       0.00359600      -0.00000000 
      46      -1.97305752       3.97447620       1.99410495       0.00277400      -0.00168700      -0.00000100 
      46      -4.00227698       4.00192940      -0.00000005       0.00124400      -0.00050800      -0.00000000 
      46      -4.04933944       6.05018997       1.99410494      -0.00124800       0.00051300       0.00000000 
6