  30
   1   1
     5.350202742831647     0.097534152770839    -0.042521156687716
     0.122216319535622     5.322689358289734    -0.018000980166837
    -0.027254295755132     0.024934865210639     5.515045489131414
   1   2
     0.008203937887528    -0.015571323147726     0.005859470088074
    -0.016430154932373     0.004621204444927    -0.021830674461166
     0.005336048616321    -0.023283610011300    -0.059982336424151
   1   3
     0.011073420719853    -0.018263126475641    -0.014701172305973
    -0.019134670480956     0.004222007573413     0.019048315452348
    -0.015209892855256     0.017568588168246     0.000988824267644
   1   4
     0.011068830773078    -0.018269628231038    -0.014708864984820
    -0.019128126888284     0.004223488389674     0.019045702161587
    -0.015204591687297     0.017564187268987     0.001003066765067
   1   5
     0.008197777695031    -0.015573866879877     0.005880918225222
    -0.016435062628643     0.004623802351515    -0.021838064039193
     0.005327041731804    -0.023287582704575    -0.059982762526256
   1   6
     0.080639503674409    -0.003343155795263     0.004452694783835
    -0.002244581678219    -0.684668369001795     0.765217276110294
    -0.005086774388038     0.790927223278517    -0.715268542349780
   1   7
     0.076254792258786     0.003675228420400    -0.025685770085719
     0.007707555263153    -0.697807287353331    -0.780708358767583
    -0.014438379871101    -0.798767607344389    -0.726635682878353
   1   8
    -0.700646440718781    -0.754904895315231     0.000708720765801
    -0.775455206692819    -0.687955120340914    -0.006310674515139
    -0.001753715534626     0.001564597510045     0.096716552289411
   1   9
    -0.033004836349610     0.025940884396548     0.032310976249480
     0.030034522175293    -0.005715103231107     0.022321608584386
     0.033079304985201     0.018967691448648    -0.016863173940325
   1  10
     0.000046114890832     0.003688706560411    -0.007124223060742
     0.021288194946328    -0.005837229379316     0.003834191646545
    -0.010963592868450    -0.014716662320637     0.001231011977090
   1  11
    -0.682798077426177    -0.000910411211303    -0.719592748078514
    -0.003146213337846     0.069565557385047     0.003434740477755
    -0.761283452677177     0.001988258517089    -0.668265938309042
   1  12
    -0.670075572805524    -0.002704305829619     0.735610383096202
    -0.005157865570480     0.076913197967165    -0.002430519343493
     0.775733245944510    -0.002616688485140    -0.675892209091123
   1  13
    -0.023840937438849    -0.002899802773302     0.001533603517995
     0.002937959202449     0.012491235017630     0.001693083775325
    -0.002524219014887     0.002329791986537     0.001906004406141
   1  14
     0.004848169246749     0.019626599926996     0.008722870375764
     0.017688364715978    -0.010864841635952    -0.013482925971840
     0.008608758511506    -0.018576319401078     0.016173699680445
   1  15
    -0.009221588360095     0.018862634385535    -0.001029273523463
     0.010761684077136    -0.041147173996601     0.015429156567725
     0.002394419931742     0.015165216033737    -0.001361375896525
   1  16
    -0.679084437841396     0.694114473969866    -0.004733681806634
     0.696660148651622    -0.659860743358093    -0.006909828779247
    -0.005292860976851    -0.006177286399721     0.049171856953119
   1  17
    -0.047724052410417    -0.016352546878419     0.020894792256452
    -0.031467426444017    -0.032650379371257    -0.015410599917362
     0.014884930097674    -0.007378375669642    -0.045325911106830
   1  18
    -0.047727305487494    -0.016346858503404     0.020886648406591
    -0.031471940879539    -0.032643386556366    -0.015413291068741
     0.014870339962932    -0.007360637391741    -0.045322037339007
   1  19
    -0.679082212888502     0.694083106903886    -0.004725494600333
     0.696615990963002    -0.659780468750423    -0.006902526205368
    -0.005280647542198    -0.006170628778544     0.049163061837670
   1  20
    -0.019220360680273    -0.000231237506172    -0.032458142693361
     0.009070327333585    -0.005987244455007     0.050298457572404
    -0.021135624139196     0.021576737958831    -0.029450257242688
   1  21
    -0.009350847303369     0.018863569123951    -0.001032794955535
     0.010757812602875    -0.041196042419278     0.015425763108947
     0.002484304111960     0.015113811710130    -0.001369153966070
   1  22
     0.004708403301269     0.019612320682526     0.008722995020723
     0.017707705338787    -0.010887915319243    -0.013491001317868
     0.008708606885577    -0.018615403161083     0.016175253196759
   1  23
    -0.023948337810851    -0.002902942338179     0.001551846802822
     0.002937884831838     0.012456053555145     0.001700917935224
    -0.002432948956521     0.002275696155777     0.001916506257790
   1  24
    -0.670272299267036    -0.002688041272465     0.735576530072984
    -0.005153927289508     0.076897515198066    -0.002433087889143
     0.775810671457032    -0.002688883321449    -0.675811428070295
   1  25
    -0.682430267448881    -0.000927507844089    -0.719028764288700
    -0.003114002374190     0.069481409680671     0.003460889099343
    -0.760635384406972     0.001949979067157    -0.667724178813623
   1  26
    -0.700503772670678    -0.754520001330761     0.000696929615488
    -0.775051071036756    -0.687558990993506    -0.006332065843787
    -0.001639493158650     0.001537266785168     0.096704752908437
   1  27
     0.076172186066732     0.003814680778550    -0.025602268529674
     0.007809368638627    -0.697590573266705    -0.780478318423910
    -0.014292633424104    -0.798492011372151    -0.726353915269095
   1  28
     0.080545027637963    -0.003171559303888     0.004358507016907
    -0.002178778643080    -0.684447306489361     0.764908002544606
    -0.005046379998137     0.790569266024696    -0.714940447697283
   1  29
     0.000011670359971     0.003761651219274    -0.007131727276985
     0.021313079415213    -0.005846701626168     0.003835482326609
    -0.010897611595644    -0.014775201716725     0.001212147885463
   1  30
    -0.033042468360696     0.026004154387073     0.032307778538652
     0.030061660969252    -0.005739999119442     0.022320178962285
     0.033134293485100     0.018874677115952    -0.016859297334363
   2   1
     0.008197777695031    -0.015573866879877     0.005880918225222
    -0.016435062628643     0.004623802351515    -0.021838064039193
     0.005327041731804    -0.023287582704575    -0.059982762526256
   2   2
     5.350202742831647     0.097534152770839    -0.042521156687717
     0.122216319535622     5.322689358289733    -0.018000980166838
    -0.027254295755132     0.024934865210639     5.515045489131413
   2   3
     0.008203937887528    -0.015571323147726     0.005859470088074
    -0.016430154932373     0.004621204444927    -0.021830674461166
     0.005336048616321    -0.023283610011300    -0.059982336424151
   2   4
     0.011073420719853    -0.018263126475641    -0.014701172305973
    -0.019134670480956     0.004222007573413     0.019048315452348
    -0.015209892855256     0.017568588168246     0.000988824267644
   2   5
     0.011068830773078    -0.018269628231038    -0.014708864984820
    -0.019128126888284     0.004223488389674     0.019045702161587
    -0.015204591687297     0.017564187268987     0.001003066765067
   2   6
     0.000046114890832     0.003688706560411    -0.007124223060742
     0.021288194946328    -0.005837229379316     0.003834191646545
    -0.010963592868450    -0.014716662320637     0.001231011977090
   2   7
     0.080639503674409    -0.003343155795263     0.004452694783835
    -0.002244581678219    -0.684668369001795     0.765217276110294
    -0.005086774388038     0.790927223278517    -0.715268542349780
   2   8
     0.076254792258786     0.003675228420400    -0.025685770085719
     0.007707555263153    -0.697807287353331    -0.780708358767582
    -0.014438379871101    -0.798767607344389    -0.726635682878352
   2   9
    -0.700646440718781    -0.754904895315231     0.000708720765801
    -0.775455206692819    -0.687955120340914    -0.006310674515139
    -0.001753715534626     0.001564597510045     0.096716552289411
   2  10
    -0.033004836349610     0.025940884396548     0.032310976249480
     0.030034522175293    -0.005715103231107     0.022321608584386
     0.033079304985201     0.018967691448648    -0.016863173940325
   2  11
    -0.009221588360095     0.018862634385535    -0.001029273523463
     0.010761684077136    -0.041147173996601     0.015429156567725
     0.002394419931742     0.015165216033737    -0.001361375896525
   2  12
    -0.682798077426177    -0.000910411211303    -0.719592748078514
    -0.003146213337846     0.069565557385047     0.003434740477755
    -0.761283452677177     0.001988258517089    -0.668265938309042
   2  13
    -0.670075572805524    -0.002704305829619     0.735610383096202
    -0.005157865570480     0.076913197967165    -0.002430519343493
     0.775733245944510    -0.002616688485140    -0.675892209091123
   2  14
    -0.023840937438849    -0.002899802773302     0.001533603517995
     0.002937959202449     0.012491235017630     0.001693083775325
    -0.002524219014887     0.002329791986537     0.001906004406141
   2  15
     0.004848169246749     0.019626599926996     0.008722870375764
     0.017688364715978    -0.010864841635952    -0.013482925971840
     0.008608758511506    -0.018576319401078     0.016173699680445
   2  16
    -0.019220360680273    -0.000231237506172    -0.032458142693361
     0.009070327333585    -0.005987244455007     0.050298457572404
    -0.021135624139196     0.021576737958831    -0.029450257242688
   2  17
    -0.679084437841396     0.694114473969866    -0.004733681806634
     0.696660148651622    -0.659860743358093    -0.006909828779247
    -0.005292860976851    -0.006177286399721     0.049171856953119
   2  18
    -0.047724052410417    -0.016352546878419     0.020894792256452
    -0.031467426444017    -0.032650379371257    -0.015410599917362
     0.014884930097674    -0.007378375669642    -0.045325911106830
   2  19
    -0.047727305487494    -0.016346858503404     0.020886648406591
    -0.031471940879539    -0.032643386556366    -0.015413291068741
     0.014870339962932    -0.007360637391741    -0.045322037339007
   2  20
    -0.679082212888502     0.694083106903886    -0.004725494600333
     0.696615990963002    -0.659780468750423    -0.006902526205368
    -0.005280647542198    -0.006170628778544     0.049163061837670
   2  21
    -0.682430267448881    -0.000927507844089    -0.719028764288700
    -0.003114002374190     0.069481409680671     0.003460889099343
    -0.760635384406972     0.001949979067157    -0.667724178813622
   2  22
    -0.009350847303369     0.018863569123951    -0.001032794955535
     0.010757812602875    -0.041196042419278     0.015425763108947
     0.002484304111960     0.015113811710130    -0.001369153966070
   2  23
     0.004708403301269     0.019612320682526     0.008722995020723
     0.017707705338787    -0.010887915319243    -0.013491001317868
     0.008708606885577    -0.018615403161083     0.016175253196759
   2  24
    -0.023948337810851    -0.002902942338179     0.001551846802822
     0.002937884831838     0.012456053555145     0.001700917935224
    -0.002432948956521     0.002275696155777     0.001916506257790
   2  25
    -0.670272299267036    -0.002688041272465     0.735576530072984
    -0.005153927289508     0.076897515198066    -0.002433087889143
     0.775810671457032    -0.002688883321449    -0.675811428070295
   2  26
    -0.033042468360696     0.026004154387073     0.032307778538652
     0.030061660969252    -0.005739999119442     0.022320178962285
     0.033134293485100     0.018874677115952    -0.016859297334363
   2  27
    -0.700503772670678    -0.754520001330761     0.000696929615489
    -0.775051071036756    -0.687558990993506    -0.006332065843787
    -0.001639493158650     0.001537266785168     0.096704752908437
   2  28
     0.076172186066732     0.003814680778550    -0.025602268529674
     0.007809368638627    -0.697590573266705    -0.780478318423910
    -0.014292633424104    -0.798492011372151    -0.726353915269095
   2  29
     0.080545027637963    -0.003171559303888     0.004358507016907
    -0.002178778643080    -0.684447306489361     0.764908002544605
    -0.005046379998137     0.790569266024696    -0.714940447697283
   2  30
     0.000011670359971     0.003761651219274    -0.007131727276985
     0.021313079415213    -0.005846701626168     0.003835482326609
    -0.010897611595644    -0.014775201716725     0.001212147885463
   3   1
     0.011068830773078    -0.018269628231038    -0.014708864984820
    -0.019128126888284     0.004223488389674     0.019045702161587
    -0.015204591687297     0.017564187268987     0.001003066765067
   3   2
     0.008197777695031    -0.015573866879877     0.005880918225222
    -0.016435062628643     0.004623802351515    -0.021838064039193
     0.005327041731804    -0.023287582704575    -0.059982762526256
   3   3
     5.350202742831647     0.097534152770839    -0.042521156687717
     0.122216319535622     5.322689358289733    -0.018000980166838
    -0.027254295755132     0.024934865210639     5.515045489131413
   3   4
     0.008203937887528    -0.015571323147726     0.005859470088074
    -0.016430154932373     0.004621204444927    -0.021830674461166
     0.005336048616321    -0.023283610011300    -0.059982336424151
   3   5
     0.011073420719853    -0.018263126475641    -0.014701172305973
    -0.019134670480956     0.004222007573413     0.019048315452348
    -0.015209892855256     0.017568588168246     0.000988824267644
   3   6
    -0.033004836349610     0.025940884396548     0.032310976249480
     0.030034522175293    -0.005715103231107     0.022321608584386
     0.033079304985201     0.018967691448648    -0.016863173940325
   3   7
     0.000046114890832     0.003688706560411    -0.007124223060742
     0.021288194946328    -0.005837229379316     0.003834191646545
    -0.010963592868450    -0.014716662320637     0.001231011977090
   3   8
     0.080639503674409    -0.003343155795263     0.004452694783835
    -0.002244581678219    -0.684668369001795     0.765217276110294
    -0.005086774388038     0.790927223278517    -0.715268542349780
   3   9
     0.076254792258786     0.003675228420400    -0.025685770085719
     0.007707555263153    -0.697807287353331    -0.780708358767582
    -0.014438379871101    -0.798767607344389    -0.726635682878352
   3  10
    -0.700646440718781    -0.754904895315231     0.000708720765801
    -0.775455206692819    -0.687955120340914    -0.006310674515139
    -0.001753715534626     0.001564597510045     0.096716552289411
   3  11
     0.004848169246749     0.019626599926996     0.008722870375764
     0.017688364715978    -0.010864841635952    -0.013482925971840
     0.008608758511506    -0.018576319401078     0.016173699680445
   3  12
    -0.009221588360095     0.018862634385535    -0.001029273523463
     0.010761684077136    -0.041147173996601     0.015429156567725
     0.002394419931742     0.015165216033737    -0.001361375896525
   3  13
    -0.682798077426177    -0.000910411211303    -0.719592748078514
    -0.003146213337846     0.069565557385047     0.003434740477755
    -0.761283452677177     0.001988258517089    -0.668265938309042
   3  14
    -0.670075572805524    -0.002704305829619     0.735610383096202
    -0.005157865570480     0.076913197967165    -0.002430519343493
     0.775733245944510    -0.002616688485140    -0.675892209091123
   3  15
    -0.023840937438849    -0.002899802773302     0.001533603517995
     0.002937959202449     0.012491235017630     0.001693083775325
    -0.002524219014887     0.002329791986537     0.001906004406141
   3  16
    -0.679082212888502     0.694083106903886    -0.004725494600333
     0.696615990963002    -0.659780468750423    -0.006902526205368
    -0.005280647542198    -0.006170628778544     0.049163061837670
   3  17
    -0.019220360680273    -0.000231237506172    -0.032458142693361
     0.009070327333585    -0.005987244455007     0.050298457572404
    -0.021135624139196     0.021576737958831    -0.029450257242688
   3  18
    -0.679084437841396     0.694114473969866    -0.004733681806634
     0.696660148651622    -0.659860743358093    -0.006909828779247
    -0.005292860976851    -0.006177286399721     0.049171856953119
   3  19
    -0.047724052410417    -0.016352546878419     0.020894792256452
    -0.031467426444017    -0.032650379371257    -0.015410599917362
     0.014884930097674    -0.007378375669642    -0.045325911106830
   3  20
    -0.047727305487494    -0.016346858503404     0.020886648406591
    -0.031471940879539    -0.032643386556366    -0.015413291068741
     0.014870339962932    -0.007360637391741    -0.045322037339007
   3  21
    -0.670272299267036    -0.002688041272465     0.735576530072984
    -0.005153927289508     0.076897515198066    -0.002433087889143
     0.775810671457032    -0.002688883321449    -0.675811428070295
   3  22
    -0.682430267448881    -0.000927507844089    -0.719028764288700
    -0.003114002374190     0.069481409680671     0.003460889099343
    -0.760635384406972     0.001949979067157    -0.667724178813622
   3  23
    -0.009350847303369     0.018863569123951    -0.001032794955535
     0.010757812602875    -0.041196042419278     0.015425763108947
     0.002484304111960     0.015113811710130    -0.001369153966070
   3  24
     0.004708403301269     0.019612320682526     0.008722995020723
     0.017707705338787    -0.010887915319243    -0.013491001317868
     0.008708606885577    -0.018615403161083     0.016175253196759
   3  25
    -0.023948337810851    -0.002902942338179     0.001551846802822
     0.002937884831838     0.012456053555145     0.001700917935224
    -0.002432948956521     0.002275696155777     0.001916506257790
   3  26
     0.000011670359971     0.003761651219274    -0.007131727276985
     0.021313079415213    -0.005846701626168     0.003835482326609
    -0.010897611595644    -0.014775201716725     0.001212147885463
   3  27
    -0.033042468360696     0.026004154387073     0.032307778538652
     0.030061660969252    -0.005739999119442     0.022320178962285
     0.033134293485100     0.018874677115952    -0.016859297334363
   3  28
    -0.700503772670678    -0.754520001330761     0.000696929615489
    -0.775051071036756    -0.687558990993506    -0.006332065843787
    -0.001639493158650     0.001537266785168     0.096704752908437
   3  29
     0.076172186066732     0.003814680778550    -0.025602268529674
     0.007809368638627    -0.697590573266705    -0.780478318423910
    -0.014292633424104    -0.798492011372151    -0.726353915269095
   3  30
     0.080545027637963    -0.003171559303888     0.004358507016907
    -0.002178778643080    -0.684447306489361     0.764908002544605
    -0.005046379998137     0.790569266024696    -0.714940447697283
   4   1
     0.011073420719853    -0.018263126475641    -0.014701172305973
    -0.019134670480956     0.004222007573413     0.019048315452348
    -0.015209892855256     0.017568588168246     0.000988824267644
   4   2
     0.011068830773078    -0.018269628231038    -0.014708864984820
    -0.019128126888284     0.004223488389674     0.019045702161587
    -0.015204591687297     0.017564187268987     0.001003066765067
   4   3
     0.008197777695031    -0.015573866879877     0.005880918225222
    -0.016435062628643     0.004623802351515    -0.021838064039193
     0.005327041731804    -0.023287582704575    -0.059982762526256
   4   4
     5.350202742831647     0.097534152770839    -0.042521156687717
     0.122216319535622     5.322689358289733    -0.018000980166838
    -0.027254295755132     0.024934865210639     5.515045489131413
   4   5
     0.008203937887528    -0.015571323147726     0.005859470088074
    -0.016430154932373     0.004621204444927    -0.021830674461166
     0.005336048616321    -0.023283610011300    -0.059982336424151
   4   6
    -0.700646440718781    -0.754904895315231     0.000708720765801
    -0.775455206692819    -0.687955120340914    -0.006310674515139
    -0.001753715534626     0.001564597510045     0.096716552289411
   4   7
    -0.033004836349610     0.025940884396548     0.032310976249480
     0.030034522175293    -0.005715103231107     0.022321608584386
     0.033079304985201     0.018967691448648    -0.016863173940325
   4   8
     0.000046114890832     0.003688706560411    -0.007124223060742
     0.021288194946328    -0.005837229379316     0.003834191646545
    -0.010963592868450    -0.014716662320637     0.001231011977090
   4   9
     0.080639503674409    -0.003343155795263     0.004452694783835
    -0.002244581678219    -0.684668369001795     0.765217276110294
    -0.005086774388038     0.790927223278517    -0.715268542349780
   4  10
     0.076254792258786     0.003675228420400    -0.025685770085719
     0.007707555263153    -0.697807287353331    -0.780708358767582
    -0.014438379871101    -0.798767607344389    -0.726635682878352
   4  11
    -0.023840937438849    -0.002899802773302     0.001533603517995
     0.002937959202449     0.012491235017630     0.001693083775325
    -0.002524219014887     0.002329791986537     0.001906004406141
   4  12
     0.004848169246749     0.019626599926996     0.008722870375764
     0.017688364715978    -0.010864841635952    -0.013482925971840
     0.008608758511506    -0.018576319401078     0.016173699680445
   4  13
    -0.009221588360095     0.018862634385535    -0.001029273523463
     0.010761684077136    -0.041147173996601     0.015429156567725
     0.002394419931742     0.015165216033737    -0.001361375896525
   4  14
    -0.682798077426177    -0.000910411211303    -0.719592748078514
    -0.003146213337846     0.069565557385047     0.003434740477755
    -0.761283452677177     0.001988258517089    -0.668265938309042
   4  15
    -0.670075572805524    -0.002704305829619     0.735610383096202
    -0.005157865570480     0.076913197967165    -0.002430519343493
     0.775733245944510    -0.002616688485140    -0.675892209091123
   4  16
    -0.047727305487494    -0.016346858503404     0.020886648406591
    -0.031471940879539    -0.032643386556366    -0.015413291068741
     0.014870339962932    -0.007360637391741    -0.045322037339007
   4  17
    -0.679082212888502     0.694083106903886    -0.004725494600333
     0.696615990963002    -0.659780468750423    -0.006902526205368
    -0.005280647542198    -0.006170628778544     0.049163061837670
   4  18
    -0.019220360680273    -0.000231237506172    -0.032458142693361
     0.009070327333585    -0.005987244455007     0.050298457572404
    -0.021135624139196     0.021576737958831    -0.029450257242688
   4  19
    -0.679084437841396     0.694114473969866    -0.004733681806634
     0.696660148651622    -0.659860743358093    -0.006909828779247
    -0.005292860976851    -0.006177286399721     0.049171856953119
   4  20
    -0.047724052410417    -0.016352546878419     0.020894792256452
    -0.031467426444017    -0.032650379371257    -0.015410599917362
     0.014884930097674    -0.007378375669642    -0.045325911106830
   4  21
    -0.023948337810851    -0.002902942338179     0.001551846802822
     0.002937884831838     0.012456053555145     0.001700917935224
    -0.002432948956521     0.002275696155777     0.001916506257790
   4  22
    -0.670272299267036    -0.002688041272465     0.735576530072984
    -0.005153927289508     0.076897515198066    -0.002433087889143
     0.775810671457032    -0.002688883321449    -0.675811428070295
   4  23
    -0.682430267448881    -0.000927507844089    -0.719028764288700
    -0.003114002374190     0.069481409680671     0.003460889099343
    -0.760635384406972     0.001949979067157    -0.667724178813622
   4  24
    -0.009350847303369     0.018863569123951    -0.001032794955535
     0.010757812602875    -0.041196042419278     0.015425763108947
     0.002484304111960     0.015113811710130    -0.001369153966070
   4  25
     0.004708403301269     0.019612320682526     0.008722995020723
     0.017707705338787    -0.010887915319243    -0.013491001317868
     0.008708606885577    -0.018615403161083     0.016175253196759
   4  26
     0.080545027637963    -0.003171559303888     0.004358507016907
    -0.002178778643080    -0.684447306489361     0.764908002544605
    -0.005046379998137     0.790569266024696    -0.714940447697283
   4  27
     0.000011670359971     0.003761651219274    -0.007131727276985
     0.021313079415213    -0.005846701626168     0.003835482326609
    -0.010897611595644    -0.014775201716725     0.001212147885463
   4  28
    -0.033042468360696     0.026004154387073     0.032307778538652
     0.030061660969252    -0.005739999119442     0.022320178962285
     0.033134293485100     0.018874677115952    -0.016859297334363
   4  29
    -0.700503772670678    -0.754520001330761     0.000696929615489
    -0.775051071036756    -0.687558990993506    -0.006332065843787
    -0.001639493158650     0.001537266785168     0.096704752908437
   4  30
     0.076172186066732     0.003814680778550    -0.025602268529674
     0.007809368638627    -0.697590573266705    -0.780478318423910
    -0.014292633424104    -0.798492011372151    -0.726353915269095
   5   1
     0.008203937887528    -0.015571323147726     0.005859470088074
    -0.016430154932373     0.004621204444927    -0.021830674461166
     0.005336048616321    -0.023283610011300    -0.059982336424151
   5   2
     0.011073420719853    -0.018263126475641    -0.014701172305973
    -0.019134670480956     0.004222007573413     0.019048315452348
    -0.015209892855256     0.017568588168246     0.000988824267644
   5   3
     0.011068830773078    -0.018269628231038    -0.014708864984820
    -0.019128126888284     0.004223488389674     0.019045702161587
    -0.015204591687297     0.017564187268987     0.001003066765067
   5   4
     0.008197777695031    -0.015573866879877     0.005880918225222
    -0.016435062628643     0.004623802351515    -0.021838064039193
     0.005327041731804    -0.023287582704575    -0.059982762526256
   5   5
     5.350202742831647     0.097534152770839    -0.042521156687717
     0.122216319535622     5.322689358289733    -0.018000980166838
    -0.027254295755132     0.024934865210639     5.515045489131413
   5   6
     0.076254792258786     0.003675228420400    -0.025685770085719
     0.007707555263153    -0.697807287353331    -0.780708358767582
    -0.014438379871101    -0.798767607344389    -0.726635682878352
   5   7
    -0.700646440718781    -0.754904895315231     0.000708720765801
    -0.775455206692819    -0.687955120340914    -0.006310674515139
    -0.001753715534626     0.001564597510045     0.096716552289411
   5   8
    -0.033004836349610     0.025940884396548     0.032310976249480
     0.030034522175293    -0.005715103231107     0.022321608584386
     0.033079304985201     0.018967691448648    -0.016863173940325
   5   9
     0.000046114890832     0.003688706560411    -0.007124223060742
     0.021288194946328    -0.005837229379316     0.003834191646545
    -0.010963592868450    -0.014716662320637     0.001231011977090
   5  10
     0.080639503674409    -0.003343155795263     0.004452694783835
    -0.002244581678219    -0.684668369001795     0.765217276110294
    -0.005086774388038     0.790927223278517    -0.715268542349780
   5  11
    -0.670075572805524    -0.002704305829619     0.735610383096202
    -0.005157865570480     0.076913197967165    -0.002430519343493
     0.775733245944510    -0.002616688485140    -0.675892209091123
   5  12
    -0.023840937438849    -0.002899802773302     0.001533603517995
     0.002937959202449     0.012491235017630     0.001693083775325
    -0.002524219014887     0.002329791986537     0.001906004406141
   5  13
     0.004848169246749     0.019626599926996     0.008722870375764
     0.017688364715978    -0.010864841635952    -0.013482925971840
     0.008608758511506    -0.018576319401078     0.016173699680445
   5  14
    -0.009221588360095     0.018862634385535    -0.001029273523463
     0.010761684077136    -0.041147173996601     0.015429156567725
     0.002394419931742     0.015165216033737    -0.001361375896525
   5  15
    -0.682798077426177    -0.000910411211303    -0.719592748078514
    -0.003146213337846     0.069565557385047     0.003434740477755
    -0.761283452677177     0.001988258517089    -0.668265938309042
   5  16
    -0.047724052410417    -0.016352546878419     0.020894792256452
    -0.031467426444017    -0.032650379371257    -0.015410599917362
     0.014884930097674    -0.007378375669642    -0.045325911106830
   5  17
    -0.047727305487494    -0.016346858503404     0.020886648406591
    -0.031471940879539    -0.032643386556366    -0.015413291068741
     0.014870339962932    -0.007360637391741    -0.045322037339007
   5  18
    -0.679082212888502     0.694083106903886    -0.004725494600333
     0.696615990963002    -0.659780468750423    -0.006902526205368
    -0.005280647542198    -0.006170628778544     0.049163061837670
   5  19
    -0.019220360680273    -0.000231237506172    -0.032458142693361
     0.009070327333585    -0.005987244455007     0.050298457572404
    -0.021135624139196     0.021576737958831    -0.029450257242688
   5  20
    -0.679084437841396     0.694114473969866    -0.004733681806634
     0.696660148651622    -0.659860743358093    -0.006909828779247
    -0.005292860976851    -0.006177286399721     0.049171856953119
   5  21
     0.004708403301269     0.019612320682526     0.008722995020723
     0.017707705338787    -0.010887915319243    -0.013491001317868
     0.008708606885577    -0.018615403161083     0.016175253196759
   5  22
    -0.023948337810851    -0.002902942338179     0.001551846802822
     0.002937884831838     0.012456053555145     0.001700917935224
    -0.002432948956521     0.002275696155777     0.001916506257790
   5  23
    -0.670272299267036    -0.002688041272465     0.735576530072984
    -0.005153927289508     0.076897515198066    -0.002433087889143