30
Lattice="-2.0602900085797478 -4.067499342100994 -6.167157315456301 -6.1823047971960206 0.0090482299244874 6.161588615511785 -2.076386225147602 8.145616922046623 -2.0574325379195693" Properties=Z:I:1:pos:R:3:vasp_force:R:3 uuid=8c120798-3aa5-4a43-a9df-fd9b72477510 vasp_virial="-0.060000967424477684 0.3259987941999287 0.06081519703088417 0.3259987941999287 0.01136690379102383 -0.021551236010838238 0.06081519703088417 -0.021551236010838238 -0.05972955755567552" vasp_energy=-95.22303237 pbc="T T T"
      46      -2.06474503      -2.03736161      -4.12003604       0.01460500       0.02906000       0.04408800 
      46      -4.13551267       6.11324470      -2.05876041       0.00071700      -0.00173700      -0.00029300 
      46      -6.19287039       2.04543135      -4.11525057      -0.00034800      -0.00003700       0.00087300 
      46      -6.18993810       2.04511735      -0.00458341       0.00000800       0.00007200       0.00016100 
      46      -6.18700581       2.04480335       4.10608374       0.00055900      -0.00018100      -0.00095500 
      47      -8.23845919       0.00707814      -0.00574082       0.00069400       0.00429800       0.00200400 
      47      -2.05322210      -0.00228409      -2.05666227       0.00028800      -0.00803400      -0.00711900 
      47      -6.18696605       4.07551949      -6.17058497      -0.00616800      -0.00352500       0.00400100 
      47      -6.18403376       4.07520549      -2.05991781      -0.00008400       0.00293900       0.00358500 
      47      -6.18110147       4.07489149       2.05074934      -0.00003000       0.00253700       0.00341400 
      47      -2.04266974       2.04097052      -0.00138428      -0.01123200       0.00169200      -0.00842100 
      47      -4.10002746      -2.02684283      -2.05787444       0.00200700       0.00273600      -0.00415100 
      47      -6.17348140       6.11846009      -0.00463982      -0.00161100       0.00097900       0.00046100 
      47      -8.23083912       2.05064675      -2.06112998      -0.00270000       0.00116700      -0.00049800 
      47      -8.22790683       2.05033275       2.04953718      -0.00335300       0.00154400      -0.00067000 
      47      -4.12743130       0.00670677      -4.11362761       0.00241100      -0.00282900       0.00066200 
      47      -4.12449901       0.00639276      -0.00296045      -0.00026300      -0.00046300       0.00022800 
      47      -4.12156672       0.00607876       4.10770670      -0.00002300      -0.00036900      -0.00026700 
      47      -8.25531067       4.08388234      -0.00621599       0.00223300      -0.00171600       0.00015100 
      47      -2.07007358       4.07452011      -2.05713745      -0.00038200       0.00107900      -0.00010100 
      47      -4.15479145       2.04015434      -6.16926774       0.00335700      -0.00137500       0.00062000 
      47      -4.15185916       2.03984034      -2.05860058       0.00377200      -0.00177300       0.00030600 
      47      -4.14892688       2.03952634       2.05206657       0.00296900      -0.00131000       0.00011700 
      47      -6.20628459      -2.02828701      -0.00442359       0.00620000      -0.00056100      -0.00436100 
      47      -8.27973853       6.11701591       2.04881103      -0.00522800      -0.00205000      -0.00688100 
      47      -6.19560520       0.01491218       2.05073776      -0.00604600      -0.00793700      -0.00267500 
      47      -0.01036812       0.00554995      -0.00018370      -0.00034800      -0.01222800      -0.01334100 
      47      -4.14411206       4.08335353      -4.11410640      -0.00056100       0.00128300      -0.00424900 
      47      -4.14117977       4.08303952      -0.00343924      -0.00112100      -0.00127500      -0.00355900 
      47      -6.19853749       0.01522618      -2.05992940      -0.00032300      -0.00198700      -0.00312900 
30
Lattice="-2.0602900085797478 -4.067499342100994 -6.167157315456301 -6.1823047971960206 0.0090482299244874 6.161588615511785 -2.076386225147602 8.145616922046623 -2.0574325379195693" Properties=Z:I:1:pos:R:3:vasp_force:R:3 uuid=023fa6c3-9ff5-4c2b-abaf-ef5b5e24c28d vasp_virial="-0.056921757841519836 0.32220874924629855 0.05758735823405847 0.32220874924629855 0.012358842240098393 -0.022598102647646574 0.05758735823405847 -0.022598102647646574 -0.0568086703961856" vasp_energy=-95.22300972 pbc="T T T"
      46      -2.06205873      -2.03205822      -4.11199503      -0.00074700       0.00672800      -0.00501100 
      46      -4.13551267       6.11324470      -2.05876041       0.00069000      -0.00168800       0.00037700 
      46      -6.19287039       2.04543135      -4.11525057       0.00030700      -0.00023800       0.00045200 
      46      -6.18993810       2.04511735      -0.00458341       0.00521000       0.00544000       0.00080300 
      46      -6.18700581       2.04480335       4.10608374      -0.00016100      -0.00565500      -0.00546300 
      47      -8.23137627       0.00706778      -0.01280000      -0.03806900       0.00065200       0.04112300 
      47      -2.05322210      -0.00228409      -2.05666227       0.00001300       0.00174300       0.00220300 
      47      -6.18696605       4.07551949      -6.17058497      -0.00013800       0.00249300       0.00327800 
      47      -6.18403376       4.07520549      -2.05991781      -0.00050300       0.00298900       0.00354600 
      47      -6.18110147       4.07489149       2.05074934      -0.00018200       0.00263400       0.00295500 
      47      -2.04266974       2.04097052      -0.00138428       0.00242100       0.00745100       0.00003000 
      47      -4.10002746      -2.02684283      -2.05787444      -0.00190900       0.00227800      -0.00094900 
      47      -6.17348140       6.11846009      -0.00463982      -0.00153200       0.00079000       0.00051500 
      47      -8.23083912       2.05064675      -2.06112998      -0.00383600       0.00713000      -0.00570900 
      47      -8.22790683       2.05033275       2.04953718      -0.00434900      -0.00408600      -0.00576500 
      47      -4.12743130       0.00670677      -4.11362761       0.01010400      -0.00119300      -0.00900900 
      47      -4.12449901       0.00639276      -0.00296045       0.00030800      -0.00024900       0.00078000 
      47      -4.12156672       0.00607876       4.10770670       0.00015800      -0.00039300       0.00012200 
      47      -8.25531067       4.08388234      -0.00621599       0.00035300      -0.00002700      -0.00012500 
      47      -2.07007358       4.07452011      -2.05713745      -0.00081200       0.00095700       0.00079800 
      47      -4.15479145       2.04015434      -6.16926774       0.00755500      -0.00609100       0.00144200 
      47      -4.15185916       2.03984034      -2.05860058       0.00396600      -0.00159900      -0.00023100 
      47      -4.14892688       2.03952634       2.05206657       0.00352300      -0.00128400      -0.00024900 
      47      -6.20628459      -2.02828701      -0.00442359       0.00742200      -0.00754400       0.00020000 
      47      -8.27973853       6.11701591       2.04881103       0.00250300      -0.00224000       0.00023300 
      47      -6.19560520       0.01491218       2.05073776      -0.00099100      -0.00243100      -0.00278300 
      47      -0.01036812       0.00554995      -0.00018370      -0.00058000      -0.00190200      -0.00291100 
      47      -4.14411206       4.08335353      -4.11410640      -0.00067800      -0.00159600      -0.00275800 
      47      -4.14117977       4.08303952      -0.00343924      -0.00053000      -0.00097000      -0.00341900 
      47      -6.19853749       0.01522618      -2.05992940       0.01048300      -0.00209900      -0.01447400 
30
Lattice="-2.0602900085797478 -4.067499342100994 -6.167157315456301 -6.1823047971960206 0.0090482299244874 6.161588615511785 -2.076386225147602 8.145616922046623 -2.0574325379195693" Properties=Z:I:1:pos:R:3:vasp_force:R:3 uuid=1f57f7d4-6c04-4267-bef2-641e2f099243 vasp_virial="-0.06709962792160086 0.3285642636740825 0.060643950327949475 0.3285642636740825 0.005140632157907593 -0.022604564787379957 0.060643950327949475 -0.022604564787379957 -0.06166496840582427" vasp_energy=-95.2230394 pbc="T T T"
      46      -2.06205873      -2.03205822      -4.11199503      -0.00001100       0.00948400      -0.00899400 
      46      -4.13551267       6.11324470      -2.05876041       0.00067800      -0.00144200       0.00041600 
      46      -6.19287039       2.04543135      -4.11525057      -0.00040900       0.00000400       0.00067300 
      46      -6.18993810       2.04511735      -0.00458341       0.00569200       0.00457600       0.00031400 
      46      -6.18700581       2.04480335       4.10608374       0.00065100       0.00468900       0.00530700 
      47      -8.24085846       0.01649045      -0.00811819       0.01291700      -0.04915100       0.01569300 
      47      -2.05322210      -0.00228409      -2.05666227       0.00032000       0.00174400       0.00269000 
      47      -6.18696605       4.07551949      -6.17058497       0.00018900       0.00226000       0.00314400 
      47      -6.18403376       4.07520549      -2.05991781      -0.00019100       0.00276200       0.00336700 
      47      -6.18110147       4.07489149       2.05074934       0.00007900       0.00259700       0.00341700 
      47      -2.04266974       2.04097052      -0.00138428       0.00336500       0.00639600      -0.00062000 
      47      -4.10002746      -2.02684283      -2.05787444      -0.00249200       0.00251000      -0.00083500 
      47      -6.17348140       6.11846009      -0.00463982      -0.00170100       0.00093600       0.00044100 
      47      -8.23083912       2.05064675      -2.06112998      -0.00253200       0.00986300      -0.00993000 
      47      -8.22790683       2.05033275       2.04953718      -0.00307800       0.00622800       0.00521100 
      47      -4.12743130       0.00670677      -4.11362761       0.00077900      -0.00241000       0.00061700 
      47      -4.12449901       0.00639276      -0.00296045      -0.00028000      -0.00034700       0.00066400 
      47      -4.12156672       0.00607876       4.10770670      -0.00002200       0.00001700       0.00032300 
      47      -8.25531067       4.08388234      -0.00621599       0.00025900       0.00069500      -0.00025600 
      47      -2.07007358       4.07452011      -2.05713745      -0.00351600      -0.00033400      -0.00328200 
      47      -4.15479145       2.04015434      -6.16926774      -0.00468600       0.00582600       0.00087100 
      47      -4.15185916       2.03984034      -2.05860058       0.00370100      -0.00150900       0.00026300 
      47      -4.14892688       2.03952634       2.05206657       0.00316200      -0.00129500       0.00016100 
      47      -6.20628459      -2.02828701      -0.00442359      -0.00861000       0.00848400      -0.00042300 
      47      -8.27973853       6.11701591       2.04881103       0.00236500      -0.00231900      -0.00017400 
      47      -6.19560520       0.01491218       2.05073776      -0.00361300      -0.00359300      -0.00687200 
      47      -0.01036812       0.00554995      -0.00018370      -0.00067000      -0.00092300      -0.00315100 
      47      -4.14411206       4.08335353      -4.11410640      -0.00097300      -0.00095400      -0.00264900 
      47      -4.14117977       4.08303952      -0.00343924      -0.00113600      -0.00117100      -0.00352700 
      47      -6.19853749       0.01522618      -2.05992940      -0.00023500      -0.00362300      -0.00285900 
30
Lattice="-2.0602900085797478 -4.067499342100994 -6.167157315456301 -6.1823047971960206 0.0090482299244874 6.161588615511785 -2.076386225147602 8.145616922046623 -2.0574325379195693" Properties=Z:I:1:pos:R:3:vasp_force:R:3 uuid=e7807c10-182a-4047-be10-37377447d7b0 vasp_virial="-0.05323187605375713 0.3223638405998998 0.06188145008689266 0.3223638405998998 0.01707620424546928 -0.022585178368179807 0.06188145008689266 -0.022585178368179807 -0.058469440307665495" vasp_energy=-95.22303382 pbc="T T T"
      46      -2.06205873      -2.03205822      -4.11199503      -0.00046500      -0.00705800       0.00933900 
      46      -4.13551267       6.11324470      -2.05876041       0.00080100      -0.00169900       0.00020400 
      46      -6.19287039       2.04543135      -4.11525057       0.00010300      -0.00038200       0.00096800 
      46      -6.18993810       2.04511735      -0.00458341      -0.00514100      -0.00465100      -0.00009000 
      46      -6.18700581       2.04480335       4.10608374       0.00050000      -0.00480000      -0.00618300 
      47      -8.23605991      -0.00233416      -0.00336344      -0.01188000       0.05246200      -0.00928800 
      47      -2.05322210      -0.00228409      -2.05666227       0.00002200       0.00182000       0.00270900 
      47      -6.18696605       4.07551949      -6.17058497      -0.00033400       0.00210500       0.00335100 
      47      -6.18403376       4.07520549      -2.05991781      -0.00064700       0.00265500       0.00369600 
      47      -6.18110147       4.07489149       2.05074934      -0.00019000       0.00267800       0.00342500 
      47      -2.04266974       2.04097052      -0.00138428      -0.00970400      -0.00397900      -0.00133900 
      47      -4.10002746      -2.02684283      -2.05787444      -0.00222900       0.00215000      -0.00052700 
      47      -6.17348140       6.11846009      -0.00463982      -0.00137500       0.00079700       0.00045600 
      47      -8.23083912       2.05064675      -2.06112998      -0.00319800      -0.00697200       0.00840800 
      47      -8.22790683       2.05033275       2.04953718      -0.00371400      -0.00304100      -0.00651100 
      47      -4.12743130       0.00670677      -4.11362761       0.00041700       0.00004900       0.00003400 
      47      -4.12449901       0.00639276      -0.00296045       0.00010200      -0.00010000       0.00060400 
      47      -4.12156672       0.00607876       4.10770670       0.00032700      -0.00027600      -0.00004700 
      47      -8.25531067       4.08388234      -0.00621599       0.00054700      -0.00084000      -0.00011300 
      47      -2.07007358       4.07452011      -2.05713745       0.00306200       0.00210100       0.00319500 
      47      -4.15479145       2.04015434      -6.16926774       0.01094600      -0.00828400       0.00028300 
      47      -4.15185916       2.03984034      -2.05860058       0.00349500      -0.00180600       0.00021800 
      47      -4.14892688       2.03952634       2.05206657       0.00290600      -0.00155300       0.00004900 
      47      -6.20628459      -2.02828701      -0.00442359       0.01253900      -0.01081700      -0.00131400 
      47      -8.27973853       6.11701591       2.04881103       0.00277500      -0.00257100       0.00072200 
      47      -6.19560520       0.01491218       2.05073776       0.00338900      -0.00115700       0.00014700 
      47      -0.01036812       0.00554995      -0.00018370      -0.00031600      -0.00286400      -0.00290500 
      47      -4.14411206       4.08335353      -4.11410640      -0.00047300      -0.00198700      -0.00243100 
      47      -4.14117977       4.08303952      -0.00343924      -0.00114900      -0.00117500      -0.00358100 
      47      -6.19853749       0.01522618      -2.05992940      -0.00111400      -0.00080400      -0.00347600 
30
Lattice="-2.0602900085797478 -4.067499342100994 -6.167157315456301 -6.1823047971960206 0.0090482299244874 6.161588615511785 -2.076386225147602 8.145616922046623 -2.0574325379195693" Properties=Z:I:1:pos:R:3:vasp_force:R:3 uuid=5a5a74bc-f823-47a6-8837-17530d4c9f1a vasp_virial="-0.06270860397276591 0.32281295931137005 0.05703807635672076 0.32281295931137005 0.008785278967536609 -0.022756425071114503 0.05703807635672076 -0.022756425071114503 -0.06197515111302674" vasp_energy=-95.22304945 pbc="T T T"
      46      -2.06205873      -2.03205822      -4.11199503      -0.00771100       0.00174700      -0.00735400 
      46      -4.13551267       6.11324470      -2.05876041       0.00078100      -0.00163700       0.00034100 
      46      -6.19287039       2.04543135      -4.11525057       0.00000700      -0.00031100       0.00083000 
      46      -6.18993810       2.04511735      -0.00458341       0.00011200       0.00000400       0.00007900 
      46      -6.18700581       2.04480335       4.10608374       0.00469600       0.00036400      -0.00378800 
      47      -8.23845919       0.00707814      -0.00574082      -0.00623500      -0.00492700       0.00477900 
      47      -2.05322210      -0.00228409      -2.05666227       0.00029900      -0.00873900      -0.00788100 
      47      -6.18696605       4.07551949      -6.17058497       0.00023400       0.00488100       0.00169400 
      47      -6.18403376       4.07520549      -2.05991781      -0.00045200       0.00272600       0.00350100 
      47      -6.18110147       4.07489149       2.05074934       0.00011000       0.00276100       0.00339200 
      47      -2.04535604       2.03566713      -0.00942530       0.01125700       0.03060500       0.04068400 
      47      -4.10002746      -2.02684283      -2.05787444      -0.00247500       0.00215400      -0.00134000 
      47      -6.17348140       6.11846009      -0.00463982      -0.00164300       0.00086400       0.00042200 
      47      -8.23083912       2.05064675      -2.06112998      -0.00304000       0.00129000      -0.00057700 
      47      -8.22790683       2.05033275       2.04953718      -0.00347100       0.00132000      -0.00135300 
      47      -4.12743130       0.00670677      -4.11362761       0.00087600      -0.01154300      -0.01001300 
      47      -4.12449901       0.00639276      -0.00296045      -0.00595400      -0.00560500       0.00179000 
      47      -4.12156672       0.00607876       4.10770670       0.00037900      -0.00004000       0.00011000 
      47      -8.25531067       4.08388234      -0.00621599       0.00034600      -0.00007200      -0.00021600 
      47      -2.07007358       4.07452011      -2.05713745       0.00006400       0.00382400      -0.00161700 
      47      -4.15479145       2.04015434      -6.16926774       0.00332100      -0.00162900       0.00068100 
      47      -4.15185916       2.03984034      -2.05860058      -0.00306800      -0.00120800      -0.00595500 
      47      -4.14892688       2.03952634       2.05206657       0.00667000      -0.00091900      -0.00278700 
      47      -6.20628459      -2.02828701      -0.00442359       0.00152600      -0.00087100      -0.00079300 
      47      -8.27973853       6.11701591       2.04881103       0.00246700      -0.00259900      -0.00002500 
      47      -6.19560520       0.01491218       2.05073776      -0.00028400      -0.00264000      -0.00366700 
      47      -0.01036812       0.00554995      -0.00018370       0.00217800      -0.00370100      -0.00191000 
      47      -4.14411206       4.08335353      -4.11410640      -0.00098500      -0.00119600      -0.00274700 
      47      -4.14117977       4.08303952      -0.00343924       0.00072700      -0.00244500      -0.00264400 
      47      -6.19853749       0.01522618      -2.05992940      -0.00073500      -0.00245900      -0.00363600 
30
Lattice="-2.0602900085797478 -4.067499342100994 -6.167157315456301 -6.1823047971960206 0.0090482299244874 6.161588615511785 -2.076386225147602 8.145616922046623 -2.0574325379195693" Properties=Z:I:1:pos:R:3:vasp_force:R:3 uuid=ff6c614d-2da3-48d5-b969-3fdc9988ed22 vasp_virial="-0.05727717552685601 0.3292524815556879 0.06609799626292623 0.3292524815556879 0.012407308288098776 -0.021218435814568927 0.06609799626292623 -0.021218435814568927 -0.05886039976153527" vasp_energy=-95.223032 pbc="T T T"
      46      -2.06205873      -2.03205822      -4.11199503       0.00758200       0.00098700       0.00751900 
      46      -4.13551267       6.11324470      -2.05876041       0.00068800      -0.00148800       0.00024500 
      46      -6.19287039       2.04543135      -4.11525057      -0.00032700      -0.00005900       0.00077400 
      46      -6.18993810       2.04511735      -0.00458341       0.00028700      -0.00015500       0.00009200 
      46      -6.18700581       2.04480335       4.10608374      -0.00346100      -0.00036400       0.00299600 
      47      -8.23845919       0.00707814      -0.00574082       0.00745100       0.00815900       0.00250900 
      47      -2.05322210      -0.00228409      -2.05666227       0.00006500       0.01182400       0.01278600 
      47      -6.18696605       4.07551949      -6.17058497      -0.00039000      -0.00051700       0.00474100 
      47      -6.18403376       4.07520549      -2.05991781      -0.00040100       0.00269900       0.00352600 
      47      -6.18110147       4.07489149       2.05074934      -0.00023100       0.00252300       0.00341000 
      47      -2.03998344       2.04627390       0.00665673      -0.01720000      -0.02824900      -0.04257700 
      47      -4.10002746      -2.02684283      -2.05787444      -0.00225900       0.00250900      -0.00006000 
      47      -6.17348140       6.11846009      -0.00463982      -0.00144400       0.00087600       0.00043700 
      47      -8.23083912       2.05064675      -2.06112998      -0.00272500       0.00128400      -0.00058800 
      47      -8.22790683       2.05033275       2.04953718      -0.00334500       0.00180000      -0.00012500 
      47      -4.12743130       0.00670677      -4.11362761       0.00024800       0.00968800       0.01112100 
      47      -4.12449901       0.00639276      -0.00296045       0.00561700       0.00503200      -0.00050400 
      47      -4.12156672       0.00607876       4.10770670      -0.00008500      -0.00021000       0.00013100 
      47      -8.25531067       4.08388234      -0.00621599       0.00045100      -0.00006300      -0.00019200 
      47      -2.07007358       4.07452011      -2.05713745      -0.00048500      -0.00200800       0.00154800 
      47      -4.15479145       2.04015434      -6.16926774       0.00327600      -0.00110100       0.00041300 
      47      -4.15185916       2.03984034      -2.05860058       0.00999100      -0.00205400       0.00618300 
      47      -4.14892688       2.03952634       2.05206657      -0.00067600      -0.00194100       0.00298600 
      47      -6.20628459      -2.02828701      -0.00442359       0.00195600      -0.00109900      -0.00095500 
      47      -8.27973853       6.11701591       2.04881103       0.00266900      -0.00228300       0.00053800 
      47      -6.19560520       0.01491218       2.05073776       0.00001500      -0.00213700      -0.00313300 
      47      -0.01036812       0.00554995      -0.00018370      -0.00317400      -0.00005800      -0.00416200 
      47      -4.14411206       4.08335353      -4.11410640      -0.00046900      -0.00173200      -0.00237700 
      47      -4.14117977       4.08303952      -0.00343924      -0.00302900       0.00009600      -0.00451700 
      47      -6.19853749       0.01522618      -2.05992940      -0.00059500      -0.00196000      -0.00276600 
30
Lattice="-2.0602900085797478 -4.067499342100994 -6.167157315456301 -6.1823047971960206 0.0090482299244874 6.161588615511785 -2.076386225147602 8.145616922046623 -2.0574325379195693" Properties=Z:I:1:pos:R:3:vasp_force:R:3 uuid=842b0c27-560d-4dd4-b1d3-4ffabde36788 vasp_virial="-0.0685697647109459 0.32708766474500406 0.06495742859998381 0.32708766474500406 0.004316709341901034 -0.021951888674308098 0.06495742859998381 -0.021951888674308098 -0.06572642322825659" vasp_energy=-95.22306873 pbc="T T T"
      46      -2.06205873      -2.03205822      -4.11199503       0.00000100       0.00135500      -0.00073700 
      46      -4.13551267       6.11324470      -2.05876041       0.00067800      -0.00158000       0.00032700 
      46      -6.19287039       2.04543135      -4.11525057      -0.00018100       0.00004900       0.00075700 
      46      -6.18993810       2.04511735      -0.00458341       0.00002400      -0.00005200       0.00006300 
      46      -6.18700581       2.04480335       4.10608374      -0.00908000      -0.00001600       0.00961700 
      47      -8.23845919       0.00707814      -0.00574082      -0.00498600      -0.00470900       0.00266600 
      47      -2.05322210      -0.00228409      -2.05666227       0.00111600       0.00741000       0.00772200 
      47      -6.18696605       4.07551949      -6.17058497       0.00082800      -0.00350400       0.00831000 
      47      -6.18403376       4.07520549      -2.05991781      -0.00048700       0.00277700       0.00338200 
      47      -6.18110147       4.07489149       2.05074934      -0.00041200       0.00262700       0.00376100 
      47      -2.04975266       2.04098088       0.00567490       0.03369600       0.00130800      -0.03715700 
      47      -4.10002746      -2.02684283      -2.05787444      -0.00225400       0.00235100      -0.00026700 
      47      -6.17348140       6.11846009      -0.00463982      -0.00158100       0.00064400       0.00044400 
      47      -8.23083912       2.05064675      -2.06112998      -0.00287200       0.00106100      -0.00051900 
      47      -8.22790683       2.05033275       2.04953718      -0.00333300       0.00161800      -0.00033900 
      47      -4.12743130       0.00670677      -4.11362761       0.00153500       0.00491900       0.00567400 
      47      -4.12449901       0.00639276      -0.00296045      -0.00476100      -0.00562600      -0.00043800 
      47      -4.12156672       0.00607876       4.10770670      -0.00023100      -0.00019100       0.00047600 
      47      -8.25531067       4.08388234      -0.00621599       0.00043300      -0.00002800      -0.00028900 
      47      -2.07007358       4.07452011      -2.05713745       0.00080000      -0.00473500       0.00497600 
      47      -4.15479145       2.04015434      -6.16926774       0.00335800      -0.00137700       0.00043600 
      47      -4.15185916       2.03984034      -2.05860058       0.00383900      -0.00164800      -0.00027700 
      47      -4.14892688       2.03952634       2.05206657      -0.00610100      -0.00138900       0.00902700 
      47      -6.20628459      -2.02828701      -0.00442359       0.00125800      -0.00100100      -0.00096400 
      47      -8.27973853       6.11701591       2.04881103       0.00260500      -0.00220600       0.00024200 
      47      -6.19560520       0.01491218       2.05073776      -0.00054600      -0.00244700      -0.00297500 
      47      -0.01036812       0.00554995      -0.00018370      -0.00608800       0.00462500      -0.00407900 
      47      -4.14411206       4.08335353      -4.11410640      -0.00060900      -0.00160000      -0.00247900 
      47      -4.14117977       4.08303952      -0.00343924      -0.00548300       0.00368300      -0.00448600 
      47      -6.19853749       0.01522618      -2.05992940      -0.00116600      -0.00231900      -0.00287300 
30
Lattice="-2.0602900085797478 -4.067499342100994 -6.167157315456301 -6.1823047971960206 0.0090482299244874 6.161588615511785 -2.076386225147602 8.145616922046623 -2.0574325379195693" Properties=Z:I:1:pos:R:3:vasp_force:R:3 uuid=d77cb941-084e-4db7-b945-938a2d1aa15c vasp_virial="-0.05221408904574902 0.32434771749804897 0.05645325271084943 0.32434771749804897 0.01691141968226797 -0.022947058193249357 0.05645325271084943 -0.022947058193249357 -0.05586519799511142" vasp_energy=-95.22302489 pbc="T T T"
      46      -2.06205873      -2.03205822      -4.11199503      -0.00047600       0.00142400       0.00056200 
      46      -4.13551267       6.11324470      -2.05876041       0.00080400      -0.00154200       0.00022600 
      46      -6.19287039       2.04543135      -4.11525057      -0.00011800      -0.00041900       0.00081700 
      46      -6.18993810       2.04511735      -0.00458341       0.00039100      -0.00009600       0.00008000 
      46      -6.18700581       2.04480335       4.10608374       0.01080500      -0.00000300      -0.01096600 
      47      -8.23845919       0.00707814      -0.00574082       0.00614400       0.00793600       0.00469500 
      47      -2.05322210      -0.00228409      -2.05666227      -0.00081000      -0.00396800      -0.00247700 
      47      -6.18696605       4.07551949      -6.17058497      -0.00092200       0.00774500      -0.00178800 
      47      -6.18403376       4.07520549      -2.05991781      -0.00034900       0.00264900       0.00361700 
      47      -6.18110147       4.07489149       2.05074934       0.00030400       0.00266500       0.00301200 
      47      -2.03558682       2.04096015      -0.00844347      -0.04008800       0.00102100       0.03628000 
      47      -4.10002746      -2.02684283      -2.05787444      -0.00246100       0.00231800      -0.00116200 
      47      -6.17348140       6.11846009      -0.00463982      -0.00149200       0.00109800       0.00038600 
      47      -8.23083912       2.05064675      -2.06112998      -0.00287800       0.00151500      -0.00067300 
      47      -8.22790683       2.05033275       2.04953718      -0.00347300       0.00150300      -0.00116700 
      47      -4.12743130       0.00670677      -4.11362761      -0.00031700      -0.00712600      -0.00496400 
      47      -4.12449901       0.00639276      -0.00296045       0.00450200       0.00505800       0.00159900 
      47      -4.12156672       0.00607876       4.10770670       0.00054000      -0.00006300      -0.00026100 
      47      -8.25531067       4.08388234      -0.00621599       0.00037800      -0.00010300      -0.00014700 
      47      -2.07007358       4.07452011      -2.05713745      -0.00125700       0.00668000      -0.00519000 
      47      -4.15479145       2.04015434      -6.16926774       0.00325600      -0.00135300       0.00063200 