  30
   1   1
     7.486414912717454    -0.159801530696559    -0.289857867818637
    -0.167277820120867     7.412113893893151     0.306206599649151
    -0.310903136153257     0.292494963616567     7.205966705336693
   1   2
    -1.047534196285593    -1.068986891642798     0.036541982717493
    -1.195030184279793    -1.048680974105560     0.042092574733591
    -0.024913417240463    -0.034267028528173     0.071527828434186
   1   3
     0.025587387818312     0.044667360183549     0.026945963215788
     0.082687018616118     0.047594803129291    -0.041295178965389
     0.018116051711665    -0.055319441471573     0.049674074580237
   1   4
     0.026110838954429     0.082183869725677     0.017033435435780
     0.045197315740217     0.047473011834742    -0.056166855906722
     0.028348112954821    -0.041122859516698     0.050494340444692
   1   5
    -1.047446215327671    -1.194854881564371    -0.025132142102131
    -1.068638362623370    -1.048968748960043    -0.033952615765953
     0.037534909689175     0.043654806816850     0.071634296637542
   1   6
     0.076095281128782     0.024692825875739     0.051462021269116
     0.037176635444183    -0.867104190287118    -0.967970977515236
     0.003145806088196    -1.112960760967048    -0.916769851735909
   1   7
    -0.013745923803641    -0.031480133440704    -0.028841912652442
    -0.017920176980085    -0.113865815891907    -0.002775658198224
    -0.036065221242804    -0.061239263276811    -0.025133550416268
   1   8
    -0.903776670825473     0.983801795029832     0.057392755459777
     0.989880075318473    -0.895954164485047    -0.056441704116070
     0.014981920446499    -0.033416185436001     0.082638340240423
   1   9
    -0.113622787307992    -0.037770318825175     0.016604950723867
    -0.045841617198535    -0.024703812107275     0.016217383932920
     0.057801691208393     0.027392237150448     0.001118256790123
   1  10
    -0.862382010414655     0.042612573047409     0.976912138255097
     0.017826066227244     0.101565007172249    -0.053265209068118
     1.144660497253550     0.009661501049710    -0.919032784735783
   1  11
    -0.937160532623658     0.036931097877958    -1.147019462319850
     0.003707881668318     0.087004491491772     0.003652902908419
    -1.163620562303318     0.038358189676933    -0.984233387784069
   1  12
    -0.017401045189123    -0.007900033299279    -0.105426256776398
    -0.027934811678327     0.022074713234711     0.000224982903483
    -0.117544280164955     0.009472378540332    -0.031031658432155
   1  13
     0.072286435698792     0.032370076564082     0.037688748520724
     0.046491553001618     0.111487299283548    -0.065828633241394
     0.056676800518797    -0.076814440987096    -0.001418444815225
   1  14
     0.025064846555533    -0.075061861078412     0.044619966066018
    -0.046996657490304    -0.015069859840746     0.056847607198882
     0.037876353127145     0.080115704598454     0.039926982127846
   1  15
     0.067367464506012    -0.006284653341190     0.026455805416361
     0.005872412050934    -0.997520152507306     1.152137911107007
    -0.025737518094007     1.173515142768430    -1.023181083698808
   1  16
     0.008292160295833    -0.029009510475816    -0.052613050807526
     0.001889906017234     0.004195345187493    -0.010080443394317
    -0.039367939485992    -0.009054939357962    -0.030899886979830
   1  17
    -0.027624014352272     0.049343093646127    -0.036341407716266
     0.041819432213465    -0.078774539873226     0.008191367922524
    -0.047924177895070     0.011779199586235    -0.017593041209854
   1  18
    -0.058138696366741     0.031353200809616    -0.009485471759039
     0.042143727833651    -0.022014009161796     0.002107035598299
    -0.006323640516310     0.020142308514711    -0.066936696260225
   1  19
     0.002468175246362    -0.017640370548720     0.000412087455176
    -0.048244147572822     0.015736275267817     0.074988691067030
     0.025164731041684     0.038357537252710    -0.150594020823064
   1  20
    -0.046873751521667    -0.010052329039845     0.034834025545647
    -0.011785843620305    -0.036224835010511    -0.017387057394257
     0.010962781892554    -0.004390983260816    -0.081341485468889
   1  21
    -0.036054104495690    -0.057559942968173     0.010699943756214
    -0.057578471061376    -0.060421177326856     0.020943929122371
     0.011428518724620     0.021521960922085     0.004431660378804
   1  22
     0.039786766223647     0.002619492238340    -0.003902487274557
     0.003075468461492     0.068195446511315    -0.053696764083392
    -0.002682190200470    -0.053164217655817     0.059630828388611
   1  23
    -0.053001816272179    -0.010899149231448    -0.053567260921304
    -0.010518802635686    -0.012017542468417     0.022088357827082
    -0.053181488762898     0.022802402303046    -0.101817579672125
   1  24
    -0.654343385640840     0.010195962698537    -0.764548952952494
     0.010650298704834     0.040194463503258     0.014926011120658
    -0.764267379820492     0.014379113509485    -0.766584519798692
   1  25
    -0.001673348547505     0.010940411276804     0.003854617071185
     0.010934686299306    -0.735529664358539     0.808456813794240
     0.004361617160662     0.809328912143387    -0.811854643161378
   1  26
    -0.082276241739327    -0.008557975379506     0.008494751822599
    -0.006959719510623     0.014715908262984     0.007783113515066
     0.008479057057879     0.004875371506403     0.012316331125892
   1  27
    -1.152266441441713     1.359235930339650     0.004359664865649
     1.367033234832255    -1.160401602514934    -0.005007992416841
     0.017586778932030    -0.021949007779296     0.180906448194765
   1  28
     0.015925103450579    -0.005535060033131    -0.008060835297582
    -0.002062357648705    -0.076474559093357    -0.010216524814800
    -0.001171870353453    -0.004011247024323     0.012555325091867
   1  29
     0.145818272483226     0.012963995239956     0.018671475248687
    -0.002353439299884    -0.934502052286792    -1.143884196681134
     0.032808611742899    -1.078663848629920    -0.955390072836846
   1  30
    -0.935894693737474    -0.002517368301657     1.151812530735109
     0.002757057961205     0.155876515879719    -0.018893523795357
     1.083767545257041    -0.031479291085571    -0.959009866905692
   2   1
    -1.047446215327671    -1.194854881564371    -0.025132142102130
    -1.068638362623370    -1.048968748960043    -0.033952615765953
     0.037534909689175     0.043654806816850     0.071634296637542
   2   2
     7.486414912717454    -0.159801530696559    -0.289857867818636
    -0.167277820120867     7.412113893893151     0.306206599649151
    -0.310903136153256     0.292494963616567     7.205966705336697
   2   3
    -1.047534196285593    -1.068986891642798     0.036541982717493
    -1.195030184279793    -1.048680974105560     0.042092574733591
    -0.024913417240463    -0.034267028528173     0.071527828434186
   2   4
     0.025587387818312     0.044667360183549     0.026945963215788
     0.082687018616118     0.047594803129291    -0.041295178965389
     0.018116051711665    -0.055319441471573     0.049674074580237
   2   5
     0.026110838954429     0.082183869725677     0.017033435435780
     0.045197315740217     0.047473011834742    -0.056166855906722
     0.028348112954821    -0.041122859516698     0.050494340444692
   2   6
    -0.862382010414655     0.042612573047409     0.976912138255097
     0.017826066227244     0.101565007172249    -0.053265209068118
     1.144660497253551     0.009661501049710    -0.919032784735784
   2   7
     0.076095281128782     0.024692825875739     0.051462021269116
     0.037176635444183    -0.867104190287118    -0.967970977515236
     0.003145806088196    -1.112960760967048    -0.916769851735909
   2   8
    -0.013745923803641    -0.031480133440704    -0.028841912652442
    -0.017920176980086    -0.113865815891907    -0.002775658198224
    -0.036065221242804    -0.061239263276811    -0.025133550416268
   2   9
    -0.903776670825473     0.983801795029832     0.057392755459777
     0.989880075318473    -0.895954164485047    -0.056441704116070
     0.014981920446499    -0.033416185436001     0.082638340240423
   2  10
    -0.113622787307992    -0.037770318825175     0.016604950723867
    -0.045841617198535    -0.024703812107275     0.016217383932920
     0.057801691208393     0.027392237150448     0.001118256790123
   2  11
     0.067367464506012    -0.006284653341190     0.026455805416361
     0.005872412050934    -0.997520152507306     1.152137911107007
    -0.025737518094007     1.173515142768430    -1.023181083698808
   2  12
    -0.937160532623659     0.036931097877958    -1.147019462319851
     0.003707881668318     0.087004491491772     0.003652902908419
    -1.163620562303319     0.038358189676933    -0.984233387784069
   2  13
    -0.017401045189123    -0.007900033299279    -0.105426256776398
    -0.027934811678327     0.022074713234711     0.000224982903483
    -0.117544280164956     0.009472378540332    -0.031031658432155
   2  14
     0.072286435698792     0.032370076564082     0.037688748520724
     0.046491553001618     0.111487299283548    -0.065828633241394
     0.056676800518797    -0.076814440987096    -0.001418444815225
   2  15
     0.025064846555533    -0.075061861078412     0.044619966066018
    -0.046996657490304    -0.015069859840746     0.056847607198882
     0.037876353127145     0.080115704598454     0.039926982127846
   2  16
    -0.046873751521667    -0.010052329039845     0.034834025545647
    -0.011785843620305    -0.036224835010511    -0.017387057394257
     0.010962781892554    -0.004390983260816    -0.081341485468889
   2  17
     0.008292160295833    -0.029009510475816    -0.052613050807526
     0.001889906017234     0.004195345187493    -0.010080443394317
    -0.039367939485992    -0.009054939357962    -0.030899886979830
   2  18
    -0.027624014352272     0.049343093646127    -0.036341407716266
     0.041819432213465    -0.078774539873226     0.008191367922524
    -0.047924177895070     0.011779199586235    -0.017593041209854
   2  19
    -0.058138696366741     0.031353200809616    -0.009485471759039
     0.042143727833651    -0.022014009161796     0.002107035598299
    -0.006323640516310     0.020142308514711    -0.066936696260225
   2  20
     0.002468175246362    -0.017640370548720     0.000412087455176
    -0.048244147572822     0.015736275267817     0.074988691067030
     0.025164731041684     0.038357537252710    -0.150594020823064
   2  21
    -0.001673348547505     0.010940411276804     0.003854617071185
     0.010934686299306    -0.735529664358539     0.808456813794241
     0.004361617160662     0.809328912143388    -0.811854643161379
   2  22
    -0.036054104495690    -0.057559942968173     0.010699943756214
    -0.057578471061376    -0.060421177326856     0.020943929122371
     0.011428518724620     0.021521960922085     0.004431660378804
   2  23
     0.039786766223647     0.002619492238340    -0.003902487274557
     0.003075468461492     0.068195446511315    -0.053696764083392
    -0.002682190200469    -0.053164217655817     0.059630828388611
   2  24
    -0.053001816272179    -0.010899149231448    -0.053567260921304
    -0.010518802635686    -0.012017542468417     0.022088357827082
    -0.053181488762898     0.022802402303046    -0.101817579672125
   2  25
    -0.654343385640841     0.010195962698537    -0.764548952952494
     0.010650298704834     0.040194463503258     0.014926011120658
    -0.764267379820492     0.014379113509485    -0.766584519798692
   2  26
    -0.935894693737474    -0.002517368301657     1.151812530735109
     0.002757057961205     0.155876515879719    -0.018893523795357
     1.083767545257041    -0.031479291085571    -0.959009866905692
   2  27
    -0.082276241739327    -0.008557975379506     0.008494751822599
    -0.006959719510623     0.014715908262984     0.007783113515066
     0.008479057057879     0.004875371506403     0.012316331125892
   2  28
    -1.152266441441713     1.359235930339650     0.004359664865649
     1.367033234832255    -1.160401602514934    -0.005007992416841
     0.017586778932030    -0.021949007779296     0.180906448194765
   2  29
     0.015925103450579    -0.005535060033131    -0.008060835297582
    -0.002062357648705    -0.076474559093357    -0.010216524814800
    -0.001171870353453    -0.004011247024323     0.012555325091867
   2  30
     0.145818272483226     0.012963995239956     0.018671475248687
    -0.002353439299884    -0.934502052286792    -1.143884196681134
     0.032808611742899    -1.078663848629920    -0.955390072836846
   3   1
     0.026110838954429     0.082183869725677     0.017033435435780
     0.045197315740217     0.047473011834742    -0.056166855906722
     0.028348112954821    -0.041122859516698     0.050494340444692
   3   2
    -1.047446215327671    -1.194854881564371    -0.025132142102130
    -1.068638362623370    -1.048968748960043    -0.033952615765953
     0.037534909689175     0.043654806816850     0.071634296637542
   3   3
     7.486414912717454    -0.159801530696559    -0.289857867818636
    -0.167277820120867     7.412113893893151     0.306206599649151
    -0.310903136153256     0.292494963616567     7.205966705336697
   3   4
    -1.047534196285593    -1.068986891642798     0.036541982717493
    -1.195030184279793    -1.048680974105560     0.042092574733591
    -0.024913417240463    -0.034267028528173     0.071527828434186
   3   5
     0.025587387818312     0.044667360183549     0.026945963215788
     0.082687018616118     0.047594803129291    -0.041295178965389
     0.018116051711665    -0.055319441471573     0.049674074580237
   3   6
    -0.113622787307992    -0.037770318825175     0.016604950723867
    -0.045841617198535    -0.024703812107275     0.016217383932920
     0.057801691208393     0.027392237150448     0.001118256790123
   3   7
    -0.862382010414655     0.042612573047409     0.976912138255097
     0.017826066227244     0.101565007172249    -0.053265209068118
     1.144660497253551     0.009661501049710    -0.919032784735784
   3   8
     0.076095281128782     0.024692825875739     0.051462021269116
     0.037176635444183    -0.867104190287118    -0.967970977515236
     0.003145806088196    -1.112960760967048    -0.916769851735909
   3   9
    -0.013745923803641    -0.031480133440704    -0.028841912652442
    -0.017920176980086    -0.113865815891907    -0.002775658198224
    -0.036065221242804    -0.061239263276811    -0.025133550416268
   3  10
    -0.903776670825473     0.983801795029832     0.057392755459777
     0.989880075318473    -0.895954164485047    -0.056441704116070
     0.014981920446499    -0.033416185436001     0.082638340240423
   3  11
     0.025064846555533    -0.075061861078412     0.044619966066018
    -0.046996657490304    -0.015069859840746     0.056847607198882
     0.037876353127145     0.080115704598454     0.039926982127846
   3  12
     0.067367464506012    -0.006284653341190     0.026455805416361
     0.005872412050934    -0.997520152507306     1.152137911107007
    -0.025737518094007     1.173515142768430    -1.023181083698808
   3  13
    -0.937160532623659     0.036931097877958    -1.147019462319851
     0.003707881668318     0.087004491491772     0.003652902908419
    -1.163620562303319     0.038358189676933    -0.984233387784069
   3  14
    -0.017401045189123    -0.007900033299279    -0.105426256776398
    -0.027934811678327     0.022074713234711     0.000224982903483
    -0.117544280164956     0.009472378540332    -0.031031658432155
   3  15
     0.072286435698792     0.032370076564082     0.037688748520724
     0.046491553001618     0.111487299283548    -0.065828633241394
     0.056676800518797    -0.076814440987096    -0.001418444815225
   3  16
     0.002468175246362    -0.017640370548720     0.000412087455176
    -0.048244147572822     0.015736275267817     0.074988691067030
     0.025164731041684     0.038357537252710    -0.150594020823064
   3  17
    -0.046873751521667    -0.010052329039845     0.034834025545647
    -0.011785843620305    -0.036224835010511    -0.017387057394257
     0.010962781892554    -0.004390983260816    -0.081341485468889
   3  18
     0.008292160295833    -0.029009510475816    -0.052613050807526
     0.001889906017234     0.004195345187493    -0.010080443394317
    -0.039367939485992    -0.009054939357962    -0.030899886979830
   3  19
    -0.027624014352272     0.049343093646127    -0.036341407716266
     0.041819432213465    -0.078774539873226     0.008191367922524
    -0.047924177895070     0.011779199586235    -0.017593041209854
   3  20
    -0.058138696366741     0.031353200809616    -0.009485471759039
     0.042143727833651    -0.022014009161796     0.002107035598299
    -0.006323640516310     0.020142308514711    -0.066936696260225
   3  21
    -0.654343385640841     0.010195962698537    -0.764548952952494
     0.010650298704834     0.040194463503258     0.014926011120658
    -0.764267379820492     0.014379113509485    -0.766584519798692
   3  22
    -0.001673348547505     0.010940411276804     0.003854617071185
     0.010934686299306    -0.735529664358539     0.808456813794241
     0.004361617160662     0.809328912143388    -0.811854643161379
   3  23
    -0.036054104495690    -0.057559942968173     0.010699943756214
    -0.057578471061376    -0.060421177326856     0.020943929122371
     0.011428518724620     0.021521960922085     0.004431660378804
   3  24
     0.039786766223647     0.002619492238340    -0.003902487274557
     0.003075468461492     0.068195446511315    -0.053696764083392
    -0.002682190200469    -0.053164217655817     0.059630828388611
   3  25
    -0.053001816272179    -0.010899149231448    -0.053567260921304
    -0.010518802635686    -0.012017542468417     0.022088357827082
    -0.053181488762898     0.022802402303046    -0.101817579672125
   3  26
     0.145818272483226     0.012963995239956     0.018671475248687
    -0.002353439299884    -0.934502052286792    -1.143884196681134
     0.032808611742899    -1.078663848629920    -0.955390072836846
   3  27
    -0.935894693737474    -0.002517368301657     1.151812530735109
     0.002757057961205     0.155876515879719    -0.018893523795357
     1.083767545257041    -0.031479291085571    -0.959009866905692
   3  28
    -0.082276241739327    -0.008557975379506     0.008494751822599
    -0.006959719510623     0.014715908262984     0.007783113515066
     0.008479057057879     0.004875371506403     0.012316331125892
   3  29
    -1.152266441441713     1.359235930339650     0.004359664865649
     1.367033234832255    -1.160401602514934    -0.005007992416841
     0.017586778932030    -0.021949007779296     0.180906448194765
   3  30
     0.015925103450579    -0.005535060033131    -0.008060835297582
    -0.002062357648705    -0.076474559093357    -0.010216524814800
    -0.001171870353453    -0.004011247024323     0.012555325091867
   4   1
     0.025587387818312     0.044667360183549     0.026945963215788
     0.082687018616118     0.047594803129291    -0.041295178965389
     0.018116051711665    -0.055319441471573     0.049674074580237
   4   2
     0.026110838954429     0.082183869725677     0.017033435435780
     0.045197315740217     0.047473011834742    -0.056166855906722
     0.028348112954821    -0.041122859516698     0.050494340444692
   4   3
    -1.047446215327671    -1.194854881564371    -0.025132142102130
    -1.068638362623370    -1.048968748960043    -0.033952615765953
     0.037534909689175     0.043654806816850     0.071634296637542
   4   4
     7.486414912717454    -0.159801530696559    -0.289857867818636
    -0.167277820120867     7.412113893893151     0.306206599649151
    -0.310903136153256     0.292494963616567     7.205966705336697
   4   5
    -1.047534196285593    -1.068986891642798     0.036541982717493
    -1.195030184279793    -1.048680974105560     0.042092574733591
    -0.024913417240463    -0.034267028528173     0.071527828434186
   4   6
    -0.903776670825473     0.983801795029832     0.057392755459777
     0.989880075318473    -0.895954164485047    -0.056441704116070
     0.014981920446499    -0.033416185436001     0.082638340240423
   4   7
    -0.113622787307992    -0.037770318825175     0.016604950723867
    -0.045841617198535    -0.024703812107275     0.016217383932920
     0.057801691208393     0.027392237150448     0.001118256790123
   4   8
    -0.862382010414655     0.042612573047409     0.976912138255097
     0.017826066227244     0.101565007172249    -0.053265209068118
     1.144660497253551     0.009661501049710    -0.919032784735784
   4   9
     0.076095281128782     0.024692825875739     0.051462021269116
     0.037176635444183    -0.867104190287118    -0.967970977515236
     0.003145806088196    -1.112960760967048    -0.916769851735909
   4  10
    -0.013745923803641    -0.031480133440704    -0.028841912652442
    -0.017920176980086    -0.113865815891907    -0.002775658198224
    -0.036065221242804    -0.061239263276811    -0.025133550416268
   4  11
     0.072286435698792     0.032370076564082     0.037688748520724
     0.046491553001618     0.111487299283548    -0.065828633241394
     0.056676800518797    -0.076814440987096    -0.001418444815225
   4  12
     0.025064846555533    -0.075061861078412     0.044619966066018
    -0.046996657490304    -0.015069859840746     0.056847607198882
     0.037876353127145     0.080115704598454     0.039926982127846
   4  13
     0.067367464506012    -0.006284653341190     0.026455805416361
     0.005872412050934    -0.997520152507306     1.152137911107007
    -0.025737518094007     1.173515142768430    -1.023181083698808
   4  14
    -0.937160532623659     0.036931097877958    -1.147019462319851
     0.003707881668318     0.087004491491772     0.003652902908419
    -1.163620562303319     0.038358189676933    -0.984233387784069
   4  15
    -0.017401045189123    -0.007900033299279    -0.105426256776398
    -0.027934811678327     0.022074713234711     0.000224982903483
    -0.117544280164956     0.009472378540332    -0.031031658432155
   4  16
    -0.058138696366741     0.031353200809616    -0.009485471759039
     0.042143727833651    -0.022014009161796     0.002107035598299
    -0.006323640516310     0.020142308514711    -0.066936696260225
   4  17
     0.002468175246362    -0.017640370548720     0.000412087455176
    -0.048244147572822     0.015736275267817     0.074988691067030
     0.025164731041684     0.038357537252710    -0.150594020823064
   4  18
    -0.046873751521667    -0.010052329039845     0.034834025545647
    -0.011785843620305    -0.036224835010511    -0.017387057394257
     0.010962781892554    -0.004390983260816    -0.081341485468889
   4  19
     0.008292160295833    -0.029009510475816    -0.052613050807526
     0.001889906017234     0.004195345187493    -0.010080443394317
    -0.039367939485992    -0.009054939357962    -0.030899886979830
   4  20
    -0.027624014352272     0.049343093646127    -0.036341407716266
     0.041819432213465    -0.078774539873226     0.008191367922524
    -0.047924177895070     0.011779199586235    -0.017593041209854
   4  21
    -0.053001816272179    -0.010899149231448    -0.053567260921304
    -0.010518802635686    -0.012017542468417     0.022088357827082
    -0.053181488762898     0.022802402303046    -0.101817579672125
   4  22
    -0.654343385640841     0.010195962698537    -0.764548952952494
     0.010650298704834     0.040194463503258     0.014926011120658
    -0.764267379820492     0.014379113509485    -0.766584519798692
   4  23
    -0.001673348547505     0.010940411276804     0.003854617071185
     0.010934686299306    -0.735529664358539     0.808456813794241
     0.004361617160662     0.809328912143388    -0.811854643161379
   4  24
    -0.036054104495690    -0.057559942968173     0.010699943756214
    -0.057578471061376    -0.060421177326856     0.020943929122371
     0.011428518724620     0.021521960922085     0.004431660378804
   4  25
     0.039786766223647     0.002619492238340    -0.003902487274557
     0.003075468461492     0.068195446511315    -0.053696764083392
    -0.002682190200469    -0.053164217655817     0.059630828388611
   4  26
     0.015925103450579    -0.005535060033131    -0.008060835297582
    -0.002062357648705    -0.076474559093357    -0.010216524814800
    -0.001171870353453    -0.004011247024323     0.012555325091867
   4  27
     0.145818272483226     0.012963995239956     0.018671475248687
    -0.002353439299884    -0.934502052286792    -1.143884196681134
     0.032808611742899    -1.078663848629920    -0.955390072836846
   4  28
    -0.935894693737474    -0.002517368301657     1.151812530735109
     0.002757057961205     0.155876515879719    -0.018893523795357
     1.083767545257041    -0.031479291085571    -0.959009866905692
   4  29
    -0.082276241739327    -0.008557975379506     0.008494751822599
    -0.006959719510623     0.014715908262984     0.007783113515066
     0.008479057057879     0.004875371506403     0.012316331125892
   4  30
    -1.152266441441713     1.359235930339650     0.004359664865649
     1.367033234832255    -1.160401602514934    -0.005007992416841
     0.017586778932030    -0.021949007779296     0.180906448194765
   5   1
    -1.047534196285593    -1.068986891642798     0.036541982717493
    -1.195030184279793    -1.048680974105560     0.042092574733591
    -0.024913417240463    -0.034267028528173     0.071527828434186
   5   2
     0.025587387818312     0.044667360183549     0.026945963215788
     0.082687018616118     0.047594803129291    -0.041295178965389
     0.018116051711665    -0.055319441471573     0.049674074580237
   5   3
     0.026110838954429     0.082183869725677     0.017033435435780
     0.045197315740217     0.047473011834742    -0.056166855906722
     0.028348112954821    -0.041122859516698     0.050494340444692
   5   4
    -1.047446215327671    -1.194854881564371    -0.025132142102130
    -1.068638362623370    -1.048968748960043    -0.033952615765953
     0.037534909689175     0.043654806816850     0.071634296637542
   5   5
     7.486414912717454    -0.159801530696559    -0.289857867818636
    -0.167277820120867     7.412113893893151     0.306206599649151
    -0.310903136153256     0.292494963616567     7.205966705336697
   5   6
    -0.013745923803641    -0.031480133440704    -0.028841912652442
    -0.017920176980086    -0.113865815891907    -0.002775658198224
    -0.036065221242804    -0.061239263276811    -0.025133550416268
   5   7
    -0.903776670825473     0.983801795029832     0.057392755459777
     0.989880075318473    -0.895954164485047    -0.056441704116070
     0.014981920446499    -0.033416185436001     0.082638340240423
   5   8
    -0.113622787307992    -0.037770318825175     0.016604950723867
    -0.045841617198535    -0.024703812107275     0.016217383932920
     0.057801691208393     0.027392237150448     0.001118256790123
   5   9
    -0.862382010414655     0.042612573047409     0.976912138255097
     0.017826066227244     0.101565007172249    -0.053265209068118
     1.144660497253551     0.009661501049710    -0.919032784735784
   5  10
     0.076095281128782     0.024692825875739     0.051462021269116
     0.037176635444183    -0.867104190287118    -0.967970977515236
     0.003145806088196    -1.112960760967048    -0.916769851735909
   5  11
    -0.017401045189123    -0.007900033299279    -0.105426256776398
    -0.027934811678327     0.022074713234711     0.000224982903483
    -0.117544280164956     0.009472378540332    -0.031031658432155
   5  12
     0.072286435698792     0.032370076564082     0.037688748520724
     0.046491553001618     0.111487299283548    -0.065828633241394
     0.056676800518797    -0.076814440987096    -0.001418444815225
   5  13
     0.025064846555533    -0.075061861078412     0.044619966066018
    -0.046996657490304    -0.015069859840746     0.056847607198882
     0.037876353127145     0.080115704598454     0.039926982127846
   5  14
     0.067367464506012    -0.006284653341190     0.026455805416361
     0.005872412050934    -0.997520152507306     1.152137911107007
    -0.025737518094007     1.173515142768430    -1.023181083698808
   5  15
    -0.937160532623659     0.036931097877958    -1.147019462319851
     0.003707881668318     0.087004491491772     0.003652902908419
    -1.163620562303319     0.038358189676933    -0.984233387784069
   5  16
    -0.027624014352272     0.049343093646127    -0.036341407716266
     0.041819432213465    -0.078774539873226     0.008191367922524
    -0.047924177895070     0.011779199586235    -0.017593041209854
   5  17
    -0.058138696366741     0.031353200809616    -0.009485471759039
     0.042143727833651    -0.022014009161796     0.002107035598299
    -0.006323640516310     0.020142308514711    -0.066936696260225
   5  18
     0.002468175246362    -0.017640370548720     0.000412087455176
    -0.048244147572822     0.015736275267817     0.074988691067030
     0.025164731041684     0.038357537252710    -0.150594020823064
   5  19
    -0.046873751521667    -0.010052329039845     0.034834025545647
    -0.011785843620305    -0.036224835010511    -0.017387057394257
     0.010962781892554    -0.004390983260816    -0.081341485468889
   5  20
     0.008292160295833    -0.029009510475816    -0.052613050807526
     0.001889906017234     0.004195345187493    -0.010080443394317
    -0.039367939485992    -0.009054939357962    -0.030899886979830
   5  21
     0.039786766223647     0.002619492238340    -0.003902487274557
     0.003075468461492     0.068195446511315    -0.053696764083392
    -0.002682190200469    -0.053164217655817     0.059630828388611
   5  22
    -0.053001816272179    -0.010899149231448    -0.053567260921304
    -0.010518802635686    -0.012017542468417     0.022088357827082
    -0.053181488762898     0.022802402303046    -0.101817579672125
   5  23
    -0.654343385640841     0.010195962698537    -0.764548952952494
     0.010650298704834     0.040194463503258     0.014926011120658