  30
   1   1
     6.230218426451579    -0.265327683512549    -0.235594754345816
    -0.295502972937207     6.141733202255372     0.202265197476619
    -0.235880713832896     0.207575274572239     6.525056652884854
   1   2
    -0.689847330919875    -0.684423111122834     0.030032879836951
    -0.673467552563937    -0.704571674484707     0.024398477486472
    -0.012397480945137    -0.027919287357882    -0.065622520788731
   1   3
    -0.016703608903813    -0.052344725828647    -0.008036515883245
    -0.044018943328439     0.005045403245639     0.007363593941308
    -0.008046408347695    -0.005486074185641     0.040152880158323
   1   4
    -0.016854934775750    -0.045134584491499    -0.008256236151627
    -0.051070888183442     0.005100598893771    -0.005203114346296
    -0.008040088282081     0.007135989591055     0.040182226263679
   1   5
    -0.690954912387373    -0.674663700820380    -0.012793905733356
    -0.683277494529756    -0.704672554347141    -0.027469033768490
     0.029834845965191     0.024370110347195    -0.065466403795465
   1   6
    -0.029921394908478    -0.026183912505221    -0.018322247918693
    -0.025306935750204    -0.746223693150533     0.831570115924592
    -0.018590462421902     0.831175995264898    -0.782353081247995
   1   7
    -0.001033508867451    -0.031223976709436    -0.029817203893383
    -0.029958731521406    -0.017785357066913     0.030817167369448
    -0.030563860498075     0.030757992949590    -0.002562519185843
   1   8
    -0.002664249003338     0.026989874886634    -0.000507508047491
     0.028090254284373     0.002459380546954    -0.030106585229730
    -0.001283958235431    -0.030014436647614     0.000547446947327
   1   9
    -0.062833249143335     0.017521885823068     0.043518638053242
     0.018224820671684    -0.052698670706011    -0.004497784745820
     0.044546378293556    -0.004777127201591    -0.047859212803640
   1  10
    -0.764753268822307    -0.028033419307099    -0.827607143386093
    -0.026970891126759    -0.029255285600631     0.008326548965898
    -0.827257573498587     0.008295972841044    -0.772202817402590
   1  11
    -0.922469421470244     1.031937618688850    -0.001355455538799
     1.038843273948068    -0.918548479258281     0.006050169365512
    -0.012163751942389     0.008172694922585     0.096573101599907
   1  12
     0.006395214511538    -0.000289149233092     0.001010034324199
     0.012444411984852    -0.067242271130249    -0.008082204638153
     0.000480698472727     0.009822024819745     0.015996574801229
   1  13
     0.003330989698217    -0.002115126141783     0.005846221709877
     0.004785432595661    -0.037003691628511     0.001223158660766
     0.011996537595107    -0.002752617648049     0.013501537102965
   1  14
    -0.639646844694354     0.709750656039640    -0.018492717434527
     0.716074064642951    -0.644684815658868     0.015092327896787
    -0.006359364083817     0.002861112085675     0.077682367774735
   1  15
    -0.092882246449284     0.006147822116489    -0.000466068885694
    -0.020498848227838     0.034880328588122    -0.000324287080891
    -0.013153738534111     0.008352431335907     0.037786719284820
   1  16
    -0.022239284165626     0.015944250342627    -0.032039313504052
     0.005316062968090     0.009475353742710    -0.019168152155126
    -0.031064239331492    -0.014824404177668    -0.021755954575422
   1  17
     0.002440200585273    -0.009513511893781    -0.019685439711565
    -0.000258603125885     0.007022739278615     0.023870806958922
    -0.005482096266578     0.022371699908772    -0.010923185727858
   1  18
     0.043941711190989     0.009972490975830     0.001218376771470
     0.003166337906587    -0.774920373356390     0.802928756216566
     0.004165088866701     0.799940096244655    -0.765057452145824
   1  19
    -0.745122254146286     0.002219762630101    -0.765716351591429
     0.010096958574462     0.043135813461675    -0.000808553801689
    -0.770848510520314    -0.008227338795233    -0.741518746130182
   1  20
    -0.029194347716534     0.008882151125043     0.026144943858223
     0.014532320249488    -0.020133705603502    -0.011252384696072
     0.017345793599729    -0.008240607852581    -0.036186058124068
   1  21
    -0.907534354937689    -0.009708774773981     0.998123134114163
    -0.010098333639947     0.110816421171031     0.007675655497696
     1.017825602168356     0.005747589840975    -0.881407580762721
   1  22
    -0.015838845075421     0.001399348560534     0.003017887607981
     0.000963886073822    -0.008558016800745    -0.013414175146037
    -0.002460269300738    -0.011984201302036    -0.010444498906667
   1  23
    -0.008926339048282     0.016375614120510     0.022751773569930
     0.018421821893484    -0.011905588006986     0.028242691117156
     0.017516313570930     0.032484797174313    -0.020995576542091
   1  24
     0.012182256880490    -0.012062888545160     0.004977590088442
    -0.008891322644242     0.008500156222579    -0.009417806900108
     0.003044022646553    -0.012473812867071    -0.024828344774522
   1  25
     0.087956776920299    -0.004320949190996    -0.018234404919512
    -0.005239969430992    -0.917713846329802    -1.009711958148101
    -0.011056317445010    -1.031502575212630    -0.903380702680774
   1  26
     0.068232524348421    -0.008963424443775    -0.027441720416319
    -0.007572690985725    -0.791392805512100    -0.891504628055520
    -0.020159239487751    -0.858072233275443    -0.807847650777422
   1  27
     0.022747913458672    -0.006806966758064    -0.001908944337553
     0.001949432802853     0.025384033244456     0.001694232807286
     0.009983997281510    -0.014762174336563    -0.056423552456849
   1  28
    -0.011660056239140     0.019865453093596     0.015595843127478
     0.024591742758363    -0.020570831932721     0.026098940292731
     0.017277109796823     0.026684181323083    -0.016766251323895
   1  29
    -0.022549465482614     0.003145281090872    -0.008412157192568
     0.000432967818136    -0.010222692718205    -0.002022660954568
    -0.009495879330223    -0.005256603615512    -0.010647599145187
   1  30
    -0.783818097882303    -0.009036305293837     0.882451766087538
    -0.015798835252364     0.084551620117685     0.015365288605116
     0.850288340320113     0.010546938361315    -0.803229998329275
   2   1
    -0.690954912387373    -0.674663700820381    -0.012793905733356
    -0.683277494529756    -0.704672554347141    -0.027469033768491
     0.029834845965191     0.024370110347195    -0.065466403795465
   2   2
     6.230218426451579    -0.265327683512549    -0.235594754345816
    -0.295502972937207     6.141733202255375     0.202265197476619
    -0.235880713832896     0.207575274572239     6.525056652884854
   2   3
    -0.689847330919875    -0.684423111122834     0.030032879836951
    -0.673467552563937    -0.704571674484708     0.024398477486472
    -0.012397480945137    -0.027919287357882    -0.065622520788731
   2   4
    -0.016703608903813    -0.052344725828647    -0.008036515883245
    -0.044018943328440     0.005045403245639     0.007363593941308
    -0.008046408347695    -0.005486074185641     0.040152880158323
   2   5
    -0.016854934775750    -0.045134584491499    -0.008256236151627
    -0.051070888183442     0.005100598893771    -0.005203114346296
    -0.008040088282081     0.007135989591055     0.040182226263679
   2   6
    -0.764753268822307    -0.028033419307099    -0.827607143386093
    -0.026970891126759    -0.029255285600631     0.008326548965898
    -0.827257573498587     0.008295972841044    -0.772202817402590
   2   7
    -0.029921394908478    -0.026183912505221    -0.018322247918693
    -0.025306935750205    -0.746223693150534     0.831570115924593
    -0.018590462421902     0.831175995264898    -0.782353081247995
   2   8
    -0.001033508867451    -0.031223976709436    -0.029817203893383
    -0.029958731521406    -0.017785357066913     0.030817167369448
    -0.030563860498075     0.030757992949590    -0.002562519185843
   2   9
    -0.002664249003338     0.026989874886634    -0.000507508047491
     0.028090254284373     0.002459380546954    -0.030106585229730
    -0.001283958235431    -0.030014436647614     0.000547446947327
   2  10
    -0.062833249143335     0.017521885823068     0.043518638053242
     0.018224820671684    -0.052698670706011    -0.004497784745820
     0.044546378293556    -0.004777127201591    -0.047859212803640
   2  11
    -0.092882246449284     0.006147822116489    -0.000466068885694
    -0.020498848227838     0.034880328588122    -0.000324287080891
    -0.013153738534111     0.008352431335907     0.037786719284820
   2  12
    -0.922469421470244     1.031937618688850    -0.001355455538799
     1.038843273948068    -0.918548479258282     0.006050169365512
    -0.012163751942389     0.008172694922585     0.096573101599907
   2  13
     0.006395214511538    -0.000289149233092     0.001010034324199
     0.012444411984852    -0.067242271130249    -0.008082204638153
     0.000480698472727     0.009822024819745     0.015996574801229
   2  14
     0.003330989698217    -0.002115126141783     0.005846221709877
     0.004785432595661    -0.037003691628511     0.001223158660766
     0.011996537595107    -0.002752617648049     0.013501537102965
   2  15
    -0.639646844694354     0.709750656039640    -0.018492717434527
     0.716074064642951    -0.644684815658868     0.015092327896787
    -0.006359364083817     0.002861112085675     0.077682367774735
   2  16
    -0.029194347716534     0.008882151125043     0.026144943858223
     0.014532320249488    -0.020133705603502    -0.011252384696072
     0.017345793599729    -0.008240607852581    -0.036186058124068
   2  17
    -0.022239284165626     0.015944250342627    -0.032039313504052
     0.005316062968090     0.009475353742710    -0.019168152155126
    -0.031064239331492    -0.014824404177668    -0.021755954575422
   2  18
     0.002440200585273    -0.009513511893781    -0.019685439711565
    -0.000258603125885     0.007022739278615     0.023870806958922
    -0.005482096266578     0.022371699908772    -0.010923185727858
   2  19
     0.043941711190989     0.009972490975830     0.001218376771470
     0.003166337906587    -0.774920373356390     0.802928756216567
     0.004165088866701     0.799940096244656    -0.765057452145824
   2  20
    -0.745122254146286     0.002219762630101    -0.765716351591429
     0.010096958574462     0.043135813461675    -0.000808553801689
    -0.770848510520314    -0.008227338795233    -0.741518746130182
   2  21
     0.087956776920299    -0.004320949190996    -0.018234404919512
    -0.005239969430992    -0.917713846329802    -1.009711958148101
    -0.011056317445010    -1.031502575212630    -0.903380702680774
   2  22
    -0.907534354937689    -0.009708774773981     0.998123134114163
    -0.010098333639947     0.110816421171031     0.007675655497697
     1.017825602168356     0.005747589840975    -0.881407580762721
   2  23
    -0.015838845075421     0.001399348560534     0.003017887607981
     0.000963886073822    -0.008558016800745    -0.013414175146037
    -0.002460269300738    -0.011984201302036    -0.010444498906667
   2  24
    -0.008926339048282     0.016375614120510     0.022751773569930
     0.018421821893484    -0.011905588006986     0.028242691117156
     0.017516313570930     0.032484797174313    -0.020995576542091
   2  25
     0.012182256880490    -0.012062888545160     0.004977590088442
    -0.008891322644242     0.008500156222579    -0.009417806900108
     0.003044022646553    -0.012473812867071    -0.024828344774522
   2  26
    -0.783818097882303    -0.009036305293837     0.882451766087538
    -0.015798835252364     0.084551620117686     0.015365288605116
     0.850288340320113     0.010546938361315    -0.803229998329275
   2  27
     0.068232524348421    -0.008963424443775    -0.027441720416319
    -0.007572690985725    -0.791392805512100    -0.891504628055520
    -0.020159239487751    -0.858072233275444    -0.807847650777422
   2  28
     0.022747913458672    -0.006806966758064    -0.001908944337553
     0.001949432802853     0.025384033244456     0.001694232807286
     0.009983997281510    -0.014762174336563    -0.056423552456849
   2  29
    -0.011660056239140     0.019865453093596     0.015595843127478
     0.024591742758363    -0.020570831932721     0.026098940292731
     0.017277109796823     0.026684181323083    -0.016766251323895
   2  30
    -0.022549465482614     0.003145281090872    -0.008412157192568
     0.000432967818136    -0.010222692718205    -0.002022660954568
    -0.009495879330223    -0.005256603615512    -0.010647599145187
   3   1
    -0.016854934775750    -0.045134584491499    -0.008256236151627
    -0.051070888183442     0.005100598893771    -0.005203114346296
    -0.008040088282081     0.007135989591055     0.040182226263679
   3   2
    -0.690954912387373    -0.674663700820381    -0.012793905733356
    -0.683277494529756    -0.704672554347141    -0.027469033768491
     0.029834845965191     0.024370110347195    -0.065466403795465
   3   3
     6.230218426451579    -0.265327683512549    -0.235594754345816
    -0.295502972937207     6.141733202255375     0.202265197476619
    -0.235880713832896     0.207575274572239     6.525056652884854
   3   4
    -0.689847330919875    -0.684423111122834     0.030032879836951
    -0.673467552563937    -0.704571674484708     0.024398477486472
    -0.012397480945137    -0.027919287357882    -0.065622520788731
   3   5
    -0.016703608903813    -0.052344725828647    -0.008036515883245
    -0.044018943328440     0.005045403245639     0.007363593941308
    -0.008046408347695    -0.005486074185641     0.040152880158323
   3   6
    -0.062833249143335     0.017521885823068     0.043518638053242
     0.018224820671684    -0.052698670706011    -0.004497784745820
     0.044546378293556    -0.004777127201591    -0.047859212803640
   3   7
    -0.764753268822307    -0.028033419307099    -0.827607143386093
    -0.026970891126759    -0.029255285600631     0.008326548965898
    -0.827257573498587     0.008295972841044    -0.772202817402590
   3   8
    -0.029921394908478    -0.026183912505221    -0.018322247918693
    -0.025306935750205    -0.746223693150534     0.831570115924593
    -0.018590462421902     0.831175995264898    -0.782353081247995
   3   9
    -0.001033508867451    -0.031223976709436    -0.029817203893383
    -0.029958731521406    -0.017785357066913     0.030817167369448
    -0.030563860498075     0.030757992949590    -0.002562519185843
   3  10
    -0.002664249003338     0.026989874886634    -0.000507508047491
     0.028090254284373     0.002459380546954    -0.030106585229730
    -0.001283958235431    -0.030014436647614     0.000547446947327
   3  11
    -0.639646844694354     0.709750656039640    -0.018492717434527
     0.716074064642951    -0.644684815658868     0.015092327896787
    -0.006359364083817     0.002861112085675     0.077682367774735
   3  12
    -0.092882246449284     0.006147822116489    -0.000466068885694
    -0.020498848227838     0.034880328588122    -0.000324287080891
    -0.013153738534111     0.008352431335907     0.037786719284820
   3  13
    -0.922469421470244     1.031937618688850    -0.001355455538799
     1.038843273948068    -0.918548479258282     0.006050169365512
    -0.012163751942389     0.008172694922585     0.096573101599907
   3  14
     0.006395214511538    -0.000289149233092     0.001010034324199
     0.012444411984852    -0.067242271130249    -0.008082204638153
     0.000480698472727     0.009822024819745     0.015996574801229
   3  15
     0.003330989698217    -0.002115126141783     0.005846221709877
     0.004785432595661    -0.037003691628511     0.001223158660766
     0.011996537595107    -0.002752617648049     0.013501537102965
   3  16
    -0.745122254146286     0.002219762630101    -0.765716351591429
     0.010096958574462     0.043135813461675    -0.000808553801689
    -0.770848510520314    -0.008227338795233    -0.741518746130182
   3  17
    -0.029194347716534     0.008882151125043     0.026144943858223
     0.014532320249488    -0.020133705603502    -0.011252384696072
     0.017345793599729    -0.008240607852581    -0.036186058124068
   3  18
    -0.022239284165626     0.015944250342627    -0.032039313504052
     0.005316062968090     0.009475353742710    -0.019168152155126
    -0.031064239331492    -0.014824404177668    -0.021755954575422
   3  19
     0.002440200585273    -0.009513511893781    -0.019685439711565
    -0.000258603125885     0.007022739278615     0.023870806958922
    -0.005482096266578     0.022371699908772    -0.010923185727858
   3  20
     0.043941711190989     0.009972490975830     0.001218376771470
     0.003166337906587    -0.774920373356390     0.802928756216567
     0.004165088866701     0.799940096244656    -0.765057452145824
   3  21
     0.012182256880490    -0.012062888545160     0.004977590088442
    -0.008891322644242     0.008500156222579    -0.009417806900108
     0.003044022646553    -0.012473812867071    -0.024828344774522
   3  22
     0.087956776920299    -0.004320949190996    -0.018234404919512
    -0.005239969430992    -0.917713846329802    -1.009711958148101
    -0.011056317445010    -1.031502575212630    -0.903380702680774
   3  23
    -0.907534354937689    -0.009708774773981     0.998123134114163
    -0.010098333639947     0.110816421171031     0.007675655497697
     1.017825602168356     0.005747589840975    -0.881407580762721
   3  24
    -0.015838845075421     0.001399348560534     0.003017887607981
     0.000963886073822    -0.008558016800745    -0.013414175146037
    -0.002460269300738    -0.011984201302036    -0.010444498906667
   3  25
    -0.008926339048282     0.016375614120510     0.022751773569930
     0.018421821893484    -0.011905588006986     0.028242691117156
     0.017516313570930     0.032484797174313    -0.020995576542091
   3  26
    -0.022549465482614     0.003145281090872    -0.008412157192568
     0.000432967818136    -0.010222692718205    -0.002022660954568
    -0.009495879330223    -0.005256603615512    -0.010647599145187
   3  27
    -0.783818097882303    -0.009036305293837     0.882451766087538
    -0.015798835252364     0.084551620117686     0.015365288605116
     0.850288340320113     0.010546938361315    -0.803229998329275
   3  28
     0.068232524348421    -0.008963424443775    -0.027441720416319
    -0.007572690985725    -0.791392805512100    -0.891504628055520
    -0.020159239487751    -0.858072233275444    -0.807847650777422
   3  29
     0.022747913458672    -0.006806966758064    -0.001908944337553
     0.001949432802853     0.025384033244456     0.001694232807286
     0.009983997281510    -0.014762174336563    -0.056423552456849
   3  30
    -0.011660056239140     0.019865453093596     0.015595843127478
     0.024591742758363    -0.020570831932721     0.026098940292731
     0.017277109796823     0.026684181323083    -0.016766251323895
   4   1
    -0.016703608903813    -0.052344725828647    -0.008036515883245
    -0.044018943328440     0.005045403245639     0.007363593941308
    -0.008046408347695    -0.005486074185641     0.040152880158323
   4   2
    -0.016854934775750    -0.045134584491499    -0.008256236151627
    -0.051070888183442     0.005100598893771    -0.005203114346296
    -0.008040088282081     0.007135989591055     0.040182226263679
   4   3
    -0.690954912387373    -0.674663700820381    -0.012793905733356
    -0.683277494529756    -0.704672554347141    -0.027469033768491
     0.029834845965191     0.024370110347195    -0.065466403795465
   4   4
     6.230218426451579    -0.265327683512549    -0.235594754345816
    -0.295502972937207     6.141733202255375     0.202265197476619
    -0.235880713832896     0.207575274572239     6.525056652884854
   4   5
    -0.689847330919875    -0.684423111122834     0.030032879836951
    -0.673467552563937    -0.704571674484708     0.024398477486472
    -0.012397480945137    -0.027919287357882    -0.065622520788731
   4   6
    -0.002664249003338     0.026989874886634    -0.000507508047491
     0.028090254284373     0.002459380546954    -0.030106585229730
    -0.001283958235431    -0.030014436647614     0.000547446947327
   4   7
    -0.062833249143335     0.017521885823068     0.043518638053242
     0.018224820671684    -0.052698670706011    -0.004497784745820
     0.044546378293556    -0.004777127201591    -0.047859212803640
   4   8
    -0.764753268822307    -0.028033419307099    -0.827607143386093
    -0.026970891126759    -0.029255285600631     0.008326548965898
    -0.827257573498587     0.008295972841044    -0.772202817402590
   4   9
    -0.029921394908478    -0.026183912505221    -0.018322247918693
    -0.025306935750205    -0.746223693150534     0.831570115924593
    -0.018590462421902     0.831175995264898    -0.782353081247995
   4  10
    -0.001033508867451    -0.031223976709436    -0.029817203893383
    -0.029958731521406    -0.017785357066913     0.030817167369448
    -0.030563860498075     0.030757992949590    -0.002562519185843
   4  11
     0.003330989698217    -0.002115126141783     0.005846221709877
     0.004785432595661    -0.037003691628511     0.001223158660766
     0.011996537595107    -0.002752617648049     0.013501537102965
   4  12
    -0.639646844694354     0.709750656039640    -0.018492717434527
     0.716074064642951    -0.644684815658868     0.015092327896787
    -0.006359364083817     0.002861112085675     0.077682367774735
   4  13
    -0.092882246449284     0.006147822116489    -0.000466068885694
    -0.020498848227838     0.034880328588122    -0.000324287080891
    -0.013153738534111     0.008352431335907     0.037786719284820
   4  14
    -0.922469421470244     1.031937618688850    -0.001355455538799
     1.038843273948068    -0.918548479258282     0.006050169365512
    -0.012163751942389     0.008172694922585     0.096573101599907
   4  15
     0.006395214511538    -0.000289149233092     0.001010034324199
     0.012444411984852    -0.067242271130249    -0.008082204638153
     0.000480698472727     0.009822024819745     0.015996574801229
   4  16
     0.043941711190989     0.009972490975830     0.001218376771470
     0.003166337906587    -0.774920373356390     0.802928756216567
     0.004165088866701     0.799940096244656    -0.765057452145824
   4  17
    -0.745122254146286     0.002219762630101    -0.765716351591429
     0.010096958574462     0.043135813461675    -0.000808553801689
    -0.770848510520314    -0.008227338795233    -0.741518746130182
   4  18
    -0.029194347716534     0.008882151125043     0.026144943858223
     0.014532320249488    -0.020133705603502    -0.011252384696072
     0.017345793599729    -0.008240607852581    -0.036186058124068
   4  19
    -0.022239284165626     0.015944250342627    -0.032039313504052
     0.005316062968090     0.009475353742710    -0.019168152155126
    -0.031064239331492    -0.014824404177668    -0.021755954575422
   4  20
     0.002440200585273    -0.009513511893781    -0.019685439711565
    -0.000258603125885     0.007022739278615     0.023870806958922
    -0.005482096266578     0.022371699908772    -0.010923185727858
   4  21
    -0.008926339048282     0.016375614120510     0.022751773569930
     0.018421821893484    -0.011905588006986     0.028242691117156
     0.017516313570930     0.032484797174313    -0.020995576542091
   4  22
     0.012182256880490    -0.012062888545160     0.004977590088442
    -0.008891322644242     0.008500156222579    -0.009417806900108
     0.003044022646553    -0.012473812867071    -0.024828344774522
   4  23
     0.087956776920299    -0.004320949190996    -0.018234404919512
    -0.005239969430992    -0.917713846329802    -1.009711958148101
    -0.011056317445010    -1.031502575212630    -0.903380702680774
   4  24
    -0.907534354937689    -0.009708774773981     0.998123134114163
    -0.010098333639947     0.110816421171031     0.007675655497697
     1.017825602168356     0.005747589840975    -0.881407580762721
   4  25
    -0.015838845075421     0.001399348560534     0.003017887607981
     0.000963886073822    -0.008558016800745    -0.013414175146037
    -0.002460269300738    -0.011984201302036    -0.010444498906667
   4  26
    -0.011660056239140     0.019865453093596     0.015595843127478
     0.024591742758363    -0.020570831932721     0.026098940292731
     0.017277109796823     0.026684181323083    -0.016766251323895
   4  27
    -0.022549465482614     0.003145281090872    -0.008412157192568
     0.000432967818136    -0.010222692718205    -0.002022660954568
    -0.009495879330223    -0.005256603615512    -0.010647599145187
   4  28
    -0.783818097882303    -0.009036305293837     0.882451766087538
    -0.015798835252364     0.084551620117686     0.015365288605116
     0.850288340320113     0.010546938361315    -0.803229998329275
   4  29
     0.068232524348421    -0.008963424443775    -0.027441720416319
    -0.007572690985725    -0.791392805512100    -0.891504628055520
    -0.020159239487751    -0.858072233275444    -0.807847650777422
   4  30
     0.022747913458672    -0.006806966758064    -0.001908944337553
     0.001949432802853     0.025384033244456     0.001694232807286
     0.009983997281510    -0.014762174336563    -0.056423552456849
   5   1
    -0.689847330919875    -0.684423111122834     0.030032879836951
    -0.673467552563937    -0.704571674484708     0.024398477486472
    -0.012397480945137    -0.027919287357882    -0.065622520788731
   5   2
    -0.016703608903813    -0.052344725828647    -0.008036515883245
    -0.044018943328440     0.005045403245639     0.007363593941308
    -0.008046408347695    -0.005486074185641     0.040152880158323
   5   3
    -0.016854934775750    -0.045134584491499    -0.008256236151627
    -0.051070888183442     0.005100598893771    -0.005203114346296
    -0.008040088282081     0.007135989591055     0.040182226263679
   5   4
    -0.690954912387373    -0.674663700820381    -0.012793905733356
    -0.683277494529756    -0.704672554347141    -0.027469033768491
     0.029834845965191     0.024370110347195    -0.065466403795465
   5   5
     6.230218426451579    -0.265327683512549    -0.235594754345816
    -0.295502972937207     6.141733202255375     0.202265197476619
    -0.235880713832896     0.207575274572239     6.525056652884854
   5   6
    -0.001033508867451    -0.031223976709436    -0.029817203893383
    -0.029958731521406    -0.017785357066913     0.030817167369448
    -0.030563860498075     0.030757992949590    -0.002562519185843
   5   7
    -0.002664249003338     0.026989874886634    -0.000507508047491
     0.028090254284373     0.002459380546954    -0.030106585229730
    -0.001283958235431    -0.030014436647614     0.000547446947327
   5   8
    -0.062833249143335     0.017521885823068     0.043518638053242
     0.018224820671684    -0.052698670706011    -0.004497784745820
     0.044546378293556    -0.004777127201591    -0.047859212803640
   5   9
    -0.764753268822307    -0.028033419307099    -0.827607143386093
    -0.026970891126759    -0.029255285600631     0.008326548965898
    -0.827257573498587     0.008295972841044    -0.772202817402590
   5  10
    -0.029921394908478    -0.026183912505221    -0.018322247918693
    -0.025306935750205    -0.746223693150534     0.831570115924593
    -0.018590462421902     0.831175995264898    -0.782353081247995
   5  11
     0.006395214511538    -0.000289149233092     0.001010034324199
     0.012444411984852    -0.067242271130249    -0.008082204638153
     0.000480698472727     0.009822024819745     0.015996574801229
   5  12
     0.003330989698217    -0.002115126141783     0.005846221709877
     0.004785432595661    -0.037003691628511     0.001223158660766
     0.011996537595107    -0.002752617648049     0.013501537102965
   5  13
    -0.639646844694354     0.709750656039640    -0.018492717434527
     0.716074064642951    -0.644684815658868     0.015092327896787
    -0.006359364083817     0.002861112085675     0.077682367774735
   5  14
    -0.092882246449284     0.006147822116489    -0.000466068885694
    -0.020498848227838     0.034880328588122    -0.000324287080891
    -0.013153738534111     0.008352431335907     0.037786719284820
   5  15
    -0.922469421470244     1.031937618688850    -0.001355455538799
     1.038843273948068    -0.918548479258282     0.006050169365512
    -0.012163751942389     0.008172694922585     0.096573101599907
   5  16
     0.002440200585273    -0.009513511893781    -0.019685439711565
    -0.000258603125885     0.007022739278615     0.023870806958922
    -0.005482096266578     0.022371699908772    -0.010923185727858
   5  17
     0.043941711190989     0.009972490975830     0.001218376771470
     0.003166337906587    -0.774920373356390     0.802928756216567
     0.004165088866701     0.799940096244656    -0.765057452145824
   5  18
    -0.745122254146286     0.002219762630101    -0.765716351591429
     0.010096958574462     0.043135813461675    -0.000808553801689
    -0.770848510520314    -0.008227338795233    -0.741518746130182
   5  19
    -0.029194347716534     0.008882151125043     0.026144943858223
     0.014532320249488    -0.020133705603502    -0.011252384696072
     0.017345793599729    -0.008240607852581    -0.036186058124068
   5  20
    -0.022239284165626     0.015944250342627    -0.032039313504052
     0.005316062968090     0.009475353742710    -0.019168152155126
    -0.031064239331492    -0.014824404177668    -0.021755954575422
   5  21
    -0.015838845075421     0.001399348560534     0.003017887607981
     0.000963886073822    -0.008558016800745    -0.013414175146037
    -0.002460269300738    -0.011984201302036    -0.010444498906667
   5  22
    -0.008926339048282     0.016375614120510     0.022751773569930
     0.018421821893484    -0.011905588006986     0.028242691117156
     0.017516313570930     0.032484797174313    -0.020995576542091
   5  23
     0.012182256880490    -0.012062888545160     0.004977590088442
    -0.008891322644242     0.008500156222579    -0.009417806900108