30
Lattice="2.0393411266942367 4.067382377713528 6.085291508054628 -8.134411254548658 -0.0082773601302151 -0.0021308926532447 -0.0046105046394917 -6.102192041182993 6.087569301375042" Properties=Z:I:1:pos:R:3:vasp_force:R:3 uuid=e5f72cf9-5a9b-4f58-bef0-6a384f411b28 vasp_virial="-0.14433530322611665 -0.10663275933441115 -0.13554191764550805 -0.10663275933441115 0.307507741122233 0.08399740988522039 -0.13554191764550805 0.08399740988522039 -0.20982544821124227" vasp_energy=-108.20110254 pbc="T T T"
      46      -0.00966860      -4.05354224       8.11485849      -0.01558400      -0.02935100      -0.06006000 
      46      -6.11109124      -2.03160230       8.10468941       0.00264300       0.00945200      -0.00613800 
      46      -4.07541866       0.00396805       8.10466003      -0.00235100       0.00408900      -0.00762200 
      46      -4.07908721      -2.02784397       2.01933914      -0.00246000       0.00390300      -0.00788600 
      46      -2.04341463       0.00772639       2.01930976       0.00132800       0.00995300      -0.00669700 
      46       0.00968935      -2.04562599       6.09530436       0.00197200      -0.00795200       0.01002600 
      46      -6.08904933      -0.01833299       6.09314409       0.00407900      -0.00422900       0.00714500 
      46      -4.05337675       2.01723736       6.09311471       0.00351500      -0.00459900       0.00563200 
      46      -2.01770417       4.05280772       6.09308533       0.00383800      -0.00342500       0.00750200 
      46      -2.02598323      -4.08119634       6.09533374       0.01199700      -0.00542300       0.01470600 
      47      -2.02077514      -2.05046152       8.08641838      -0.00364800       0.00200000      -0.00023500 
      47       0.01489744      -0.01489117       8.08638900      -0.00026600       0.00045500       0.00069200 
      47      -6.08384124       2.01240183       8.08422873       0.00024300       0.00002200       0.00040300 
      47      -6.08750979      -0.01941019       1.99890784      -0.00262600       0.00218600      -0.00021600 
      47      -4.05644771      -4.08603188       8.08644776      -0.00002100       0.00032500      -0.00009400 
      47      -2.03092289      -0.00494029      10.14255683       0.00026100       0.00058600       0.00095800 
      47      -2.03459144      -2.03675231       4.05723594       0.00011000       0.00076100      -0.00029100 
      47       0.00108114      -0.00118196       4.05720656      -0.00001200      -0.00205800       0.00209400 
      47      -6.09765754       2.02611104       4.05504629       0.00857800       0.00037400       0.00801600 
      47      -4.06659547      -2.04051065      10.14258621       0.00007900       0.00042900       0.00094800 
      47      -6.11594124      -4.06209176       6.11352815      -0.00659200      -0.00127900       0.00375900 
      47      -4.08026866      -2.02652141       6.11349877      -0.00076300      -0.00055100      -0.00029000 
      47      -2.04459609       0.00904895       6.11346939      -0.00039500      -0.00078500      -0.00012400 
      47      -0.00892351       2.04461931       6.11344001       0.00007700       0.00021300      -0.00134300 
      47      -0.01259206       0.01280728       0.02811912      -0.00026900       0.01179700       0.01155700 
      47       0.00059035      -2.03635090      10.14367764       0.00039400       0.01162500       0.01232200 
      47      -6.09814833      -0.00905790      10.14151737      -0.00008900       0.00050600       0.00111100 
      47      -6.10181687      -2.04086993       4.05619648      -0.00010700       0.00074200      -0.00029700 
      47      -4.06614430      -0.00529957       4.05616710       0.00038700       0.00024700       0.00047700 
      47      -2.03047172       2.03027079       4.05613772      -0.00431700      -0.00001100       0.00394700 
30
Lattice="2.0393411266942367 4.067382377713528 6.085291508054628 -8.134411254548658 -0.0082773601302151 -0.0021308926532447 -0.0046105046394917 -6.102192041182993 6.087569301375042" Properties=Z:I:1:pos:R:3:vasp_force:R:3 uuid=07e59af1-0637-45c5-b563-23e255b111ef vasp_virial="-0.13885004019512606 -0.11328042060220955 -0.12910474470707753 -0.11328042060220955 0.31429991676541835 0.08786788185210492 -0.12910474470707753 0.08786788185210492 -0.2024489318327968" vasp_energy=-108.20118142 pbc="T T T"
      46      -0.01235256      -4.05889530       8.10684968      -0.00206600       0.00444000      -0.00833900 
      46      -6.11109124      -2.03160230       8.10468941       0.00473200       0.00380200       0.00206900 
      46      -4.07541866       0.00396805       8.10466003      -0.00210800       0.00373900      -0.00767100 
      46      -4.07908721      -2.02784397       2.01933914      -0.00284900       0.00357800      -0.00755700 
      46      -2.04341463       0.00772639       2.01930976      -0.00388100       0.00493600      -0.00706000 
      46       0.01968934      -2.04561581       6.09530698      -0.05963400      -0.00192800       0.01005200 
      46      -6.08904933      -0.01833299       6.09314409       0.01066200       0.00272600       0.00739000 
      46      -4.05337675       2.01723736       6.09311471       0.00377500      -0.00431200       0.00560900 
      46      -2.01770417       4.05280772       6.09308533       0.00425700      -0.00320200       0.00734700 
      46      -2.02598323      -4.08119634       6.09533374       0.01012100       0.00106900       0.00626500 
      47      -2.02077514      -2.05046152       8.08641838       0.00824600       0.00000400      -0.00917400 
      47       0.01489744      -0.01489117       8.08638900      -0.00109600       0.00019900       0.00101500 
      47      -6.08384124       2.01240183       8.08422873       0.00021300      -0.00010100       0.00053900 
      47      -6.08750979      -0.01941019       1.99890784      -0.00051100       0.00047600       0.00025600 
      47      -4.05644771      -4.08603188       8.08644776      -0.00036400       0.00055900       0.00023000 
      47      -2.03092289      -0.00494029      10.14255683       0.00023500       0.00045200       0.00039000 
      47      -2.03459144      -2.03675231       4.05723594       0.00736400       0.00091300       0.00725400 
      47       0.00108114      -0.00118196       4.05720656      -0.00031700       0.00010900       0.00032300 
      47      -6.09765754       2.02611104       4.05504629       0.00022500       0.00064400       0.00012300 
      47      -4.06659547      -2.04051065      10.14258621       0.00040100       0.00009900       0.00105200 
      47      -6.11594124      -4.06209176       6.11352815       0.00833400      -0.01119300      -0.00049200 
      47      -4.08026866      -2.02652141       6.11349877       0.00007100      -0.00077000      -0.00038000 
      47      -2.04459609       0.00904895       6.11346939       0.00606500      -0.00751000       0.00015900 
      47      -0.00892351       2.04461931       6.11344001       0.00001300       0.00013100      -0.00158000 
      47      -0.01259206       0.01280728       0.02811912      -0.00026600      -0.00108800      -0.00079700 
      47       0.00059035      -2.03635090      10.14367764       0.00012300       0.00025600       0.00080800 
      47      -6.09814833      -0.00905790      10.14151737      -0.00065700       0.00059600       0.00101100 
      47      -6.10181687      -2.04086993       4.05619648       0.00804500       0.00097100      -0.00917800 
      47      -4.06614430      -0.00529957       4.05616710       0.00044200       0.00010700       0.00049200 
      47      -2.03047172       2.03027079       4.05613772       0.00042700       0.00029700      -0.00015500 
30
Lattice="2.0393411266942367 4.067382377713528 6.085291508054628 -8.134411254548658 -0.0082773601302151 -0.0021308926532447 -0.0046105046394917 -6.102192041182993 6.087569301375042" Properties=Z:I:1:pos:R:3:vasp_force:R:3 uuid=9242cc8a-36d5-49c6-9167-b372aa56187c vasp_virial="-0.1362927640741488 -0.11172846187522827 -0.13571784818945737 -0.11172846187522827 0.3163231180208352 0.0826308065527571 -0.13571784818945737 0.0826308065527571 -0.19603375021235994" vasp_energy=-108.20125537 pbc="T T T"
      46      -0.01235256      -4.05889530       8.10684968      -0.00242100      -0.00734000       0.00324900 
      46      -6.11109124      -2.03160230       8.10468941       0.00268100       0.00322900      -0.00078800 
      46      -4.07541866       0.00396805       8.10466003      -0.00292400       0.00353700      -0.00689500 
      46      -4.07908721      -2.02784397       2.01933914      -0.00267300       0.00404400      -0.00775400 
      46      -2.04341463       0.00772639       2.01930976      -0.00389300       0.00424800      -0.00710000 
      46       0.00968400      -2.05270553       6.10236694       0.00228900       0.03842300      -0.03768400 
      46      -6.08904933      -0.01833299       6.09314409      -0.00134800      -0.00932300       0.00757100 
      46      -4.05337675       2.01723736       6.09311471       0.00330500      -0.00481200       0.00523100 
      46      -2.01770417       4.05280772       6.09308533       0.00383500      -0.00367500       0.00705900 
      46      -2.02598323      -4.08119634       6.09533374      -0.00142800      -0.01050800       0.00720800 
      47      -2.02077514      -2.05046152       8.08641838      -0.00806200       0.00064800       0.00701000 
      47       0.01489744      -0.01489117       8.08638900      -0.00017500       0.00089300       0.00007200 
      47      -6.08384124       2.01240183       8.08422873       0.00025000      -0.00010700       0.00072400 
      47      -6.08750979      -0.01941019       1.99890784      -0.00059500       0.00029500       0.00085800 
      47      -4.05644771      -4.08603188       8.08644776      -0.00049700       0.00056600       0.00026400 
      47      -2.03092289      -0.00494029      10.14255683      -0.00007400       0.00042600       0.00085200 
      47      -2.03459144      -2.03675231       4.05723594       0.00547100       0.00124400       0.00495300 
      47       0.00108114      -0.00118196       4.05720656       0.00011600      -0.01066200       0.01115600 
      47      -6.09765754       2.02611104       4.05504629       0.00028900       0.00041000       0.00019900 
      47      -4.06659547      -2.04051065      10.14258621       0.00043400       0.00040000       0.00077000 
      47      -6.11594124      -4.06209176       6.11352815       0.00650600      -0.00734200      -0.00114400 
      47      -4.08026866      -2.02652141       6.11349877      -0.00091000      -0.00055100      -0.00062600 
      47      -2.04459609       0.00904895       6.11346939       0.00483000      -0.00513200      -0.00042400 
      47      -0.00892351       2.04461931       6.11344001      -0.00000500      -0.00016800      -0.00158300 
      47      -0.01259206       0.01280728       0.02811912      -0.00011600      -0.00166800      -0.00093300 
      47       0.00059035      -2.03635090      10.14367764       0.00029600       0.00044300       0.00122600 
      47      -6.09814833      -0.00905790      10.14151737       0.00011300       0.00092800       0.00014900 
      47      -6.10181687      -2.04086993       4.05619648      -0.00594300       0.00135100       0.00555400 
      47      -4.06614430      -0.00529957       4.05616710       0.00028500       0.00007200       0.00049700 
      47      -2.03047172       2.03027079       4.05613772       0.00036300       0.00013000       0.00032800 
30
Lattice="2.0393411266942367 4.067382377713528 6.085291508054628 -8.134411254548658 -0.0082773601302151 -0.0021308926532447 -0.0046105046394917 -6.102192041182993 6.087569301375042" Properties=Z:I:1:pos:R:3:vasp_force:R:3 uuid=0c52883a-c5e6-40ed-871b-47492ebb5262 vasp_virial="-0.1485073704112 -0.10170984572068707 -0.13268618792318823 -0.10170984572068707 0.3043881155839892 0.08836739893224667 -0.13268618792318823 0.08836739893224667 -0.21016788444857215" vasp_energy=-108.20106766 pbc="T T T"
      46      -0.01235256      -4.05889530       8.10684968      -0.00229700       0.01502900      -0.01956300 
      46      -6.11109124      -2.03160230       8.10468941      -0.00859100       0.00382500      -0.01179300 
      46      -4.07541866       0.00396805       8.10466003      -0.00252800       0.00428000      -0.00749500 
      46      -4.07908721      -2.02784397       2.01933914      -0.00306300       0.00364800      -0.00730800 
      46      -2.04341463       0.00772639       2.01930976      -0.00387500       0.00499800      -0.00755900 
      46       0.00969470      -2.03854644       6.08824178       0.00233000      -0.04742500       0.05124600 
      46      -6.08904933      -0.01833299       6.09314409       0.00878400       0.00107100       0.00704900 
      46      -4.05337675       2.01723736       6.09311471       0.00394100      -0.00472100       0.00588600 
      46      -2.01770417       4.05280772       6.09308533       0.00437000      -0.00376100       0.00753600 
      46      -2.02598323      -4.08119634       6.09533374       0.00796600      -0.00085600       0.00594800 
      47      -2.02077514      -2.05046152       8.08641838       0.00651500      -0.00078000      -0.00556700 
      47       0.01489744      -0.01489117       8.08638900      -0.00023200      -0.00061700       0.00162200 
      47      -6.08384124       2.01240183       8.08422873       0.00044400      -0.00034100       0.00051900 
      47      -6.08750979      -0.01941019       1.99890784      -0.00058300       0.00098500       0.00017400 
      47      -4.05644771      -4.08603188       8.08644776      -0.00052000       0.00058100       0.00031900 
      47      -2.03092289      -0.00494029      10.14255683      -0.00000900       0.00065700       0.00051300 
      47      -2.03459144      -2.03675231       4.05723594      -0.00552700       0.00058000      -0.00549000 
      47       0.00108114      -0.00118196       4.05720656       0.00015500       0.01166100      -0.01099600 
      47      -6.09765754       2.02611104       4.05504629       0.00024000       0.00069000      -0.00028000 
      47      -4.06659547      -2.04051065      10.14258621      -0.00005500       0.00011900       0.00074700 
      47      -6.11594124      -4.06209176       6.11352815      -0.00833400       0.00582200       0.00014800 
      47      -4.08026866      -2.02652141       6.11349877      -0.00077900      -0.00086300      -0.00007400 
      47      -2.04459609       0.00904895       6.11346939      -0.00537200       0.00409900       0.00047400 
      47      -0.00892351       2.04461931       6.11344001       0.00012200       0.00038100      -0.00139700 
      47      -0.01259206       0.01280728       0.02811912      -0.00026100      -0.00051500      -0.00057900 
      47       0.00059035      -2.03635090      10.14367764       0.00043400      -0.00006100       0.00041800 
      47      -6.09814833      -0.00905790      10.14151737      -0.00004000       0.00007600       0.00137200 
      47      -6.10181687      -2.04086993       4.05619648       0.00631200       0.00036800      -0.00599500 
      47      -4.06614430      -0.00529957       4.05616710       0.00017000       0.00020600       0.00038900 
      47      -2.03047172       2.03027079       4.05613772       0.00028400       0.00086100      -0.00026500 
30
Lattice="2.0393411266942367 4.067382377713528 6.085291508054628 -8.134411254548658 -0.0082773601302151 -0.0021308926532447 -0.0046105046394917 -6.102192041182993 6.087569301375042" Properties=Z:I:1:pos:R:3:vasp_force:R:3 uuid=7c8f7710-76ff-4628-a141-26e8b6c2992a vasp_virial="-0.1505839791531729 -0.10431738771136416 -0.13465912330890534 -0.10431738771136416 0.3025251367882404 0.08264023140332583 -0.13465912330890534 0.08264023140332583 -0.21161302820244138" vasp_energy=-108.2011507 pbc="T T T"
      46      -0.01235256      -4.05889530       8.10684968      -0.00535200       0.00629500      -0.00929000 
      46      -6.11109124      -2.03160230       8.10468941      -0.00277100       0.00343700      -0.00670200 
      46      -4.07541866       0.00396805       8.10466003      -0.00461800       0.00536300      -0.00786200 
      46      -4.07908721      -2.02784397       2.01933914      -0.00286800       0.00407000      -0.00769700 
      46      -2.04341463       0.00772639       2.01930976      -0.00386300       0.00506900      -0.00755200 
      46       0.00968935      -2.04562599       6.09530436      -0.00384400      -0.00594900       0.01248700 
      46      -6.08904933      -0.01833299       6.09314409       0.00369700      -0.00398000       0.00740900 
      46      -4.05337675       2.01723736       6.09311471       0.00341600      -0.00493300       0.00546300 
      46      -2.01770417       4.05280772       6.09308533       0.00413600      -0.00361200       0.00751300 
      46      -2.02598323      -4.08119634       6.09533374       0.00333700       0.00711400       0.01903600 
      47      -2.01809117      -2.04510847       8.09442720      -0.01841500      -0.03217200      -0.04849000 
      47       0.01489744      -0.01489117       8.08638900       0.00687300       0.00681700      -0.00047600 
      47      -6.08384124       2.01240183       8.08422873       0.00029900      -0.00010600       0.00049900 
      47      -6.08750979      -0.01941019       1.99890784      -0.00057600       0.00069100       0.00042100 
      47      -4.05644771      -4.08603188       8.08644776       0.00640400       0.00706400      -0.00097800 
      47      -2.03092289      -0.00494029      10.14255683      -0.00021800       0.01107200       0.01104000 
      47      -2.03459144      -2.03675231       4.05723594       0.00016400       0.00117200       0.00036600 
      47       0.00108114      -0.00118196       4.05720656       0.00009000       0.00008800       0.00026700 
      47      -6.09765754       2.02611104       4.05504629       0.00037600       0.00056800      -0.00005000 
      47      -4.06659547      -2.04051065      10.14258621      -0.00440100      -0.00039700       0.00426600 
      47      -6.11594124      -4.06209176       6.11352815      -0.00093400      -0.00042100      -0.00018300 
      47      -4.08026866      -2.02652141       6.11349877       0.00962000      -0.00171700       0.00883500 
      47      -2.04459609       0.00904895       6.11346939      -0.00057000      -0.00383800       0.00122600 
      47      -0.00892351       2.04461931       6.11344001       0.00026300       0.00006100      -0.00141500 
      47      -0.01259206       0.01280728       0.02811912      -0.00019900      -0.00093700      -0.00074400 
      47       0.00059035      -2.03635090      10.14367764       0.00945500      -0.00012700       0.00986200 
      47      -6.09814833      -0.00905790      10.14151737       0.00011100       0.00069700       0.00098200 
      47      -6.10181687      -2.04086993       4.05619648      -0.00005800       0.00104500       0.00000500 
      47      -4.06614430      -0.00529957       4.05616710       0.00046500       0.00006300       0.00047000 
      47      -2.03047172       2.03027079       4.05613772      -0.00002100      -0.00249800       0.00129100 
30
Lattice="2.0393411266942367 4.067382377713528 6.085291508054628 -8.134411254548658 -0.0082773601302151 -0.0021308926532447 -0.0046105046394917 -6.102192041182993 6.087569301375042" Properties=Z:I:1:pos:R:3:vasp_force:R:3 uuid=04a8c84f-b801-43e4-a3f3-1db326deb8a6 vasp_virial="-0.13511465775305978 -0.10911463665083873 -0.13364752268119687 -0.10911463665083873 0.31799445818835353 0.0911225969151669 -0.13364752268119687 0.0911225969151669 -0.1942524534548733" vasp_energy=-108.20116026 pbc="T T T"
      46      -0.01235256      -4.05889530       8.10684968       0.00070100       0.00207800      -0.00774200 
      46      -6.11109124      -2.03160230       8.10468941      -0.00322700       0.00364500      -0.00610100 
      46      -4.07541866       0.00396805       8.10466003      -0.00077100       0.00249200      -0.00664600 
      46      -4.07908721      -2.02784397       2.01933914      -0.00280500       0.00366500      -0.00747100 
      46      -2.04341463       0.00772639       2.01930976      -0.00383700       0.00423000      -0.00721200 
      46       0.00968935      -2.04562599       6.09530436       0.00716000      -0.00474500       0.00385500 
      46      -6.08904933      -0.01833299       6.09314409       0.00365600      -0.00433500       0.00708100 
      46      -4.05337675       2.01723736       6.09311471       0.00388800      -0.00456200       0.00555000 
      46      -2.01770417       4.05280772       6.09308533       0.00412900      -0.00377500       0.00697500 
      46      -2.02598323      -4.08119634       6.09533374       0.00344700      -0.01895700      -0.00654200 
      47      -2.02345910      -2.05581458       8.07840957       0.01677300       0.03249500       0.05012200 
      47       0.01489744      -0.01489117       8.08638900      -0.00704400      -0.00630700       0.00204200 
      47      -6.08384124       2.01240183       8.08422873       0.00045600      -0.00029400       0.00063400 
      47      -6.08750979      -0.01941019       1.99890784      -0.00054400       0.00063400       0.00051100 
      47      -4.05644771      -4.08603188       8.08644776      -0.00753700      -0.00601800       0.00152100 
      47      -2.03092289      -0.00494029      10.14255683       0.00015700      -0.00946000      -0.00932200 
      47      -2.03459144      -2.03675231       4.05723594      -0.00000800       0.00074100      -0.00090000 
      47       0.00108114      -0.00118196       4.05720656       0.00023800       0.00038000       0.00036200 
      47      -6.09765754       2.02611104       4.05504629       0.00020800       0.00057600      -0.00014100 
      47      -4.06659547      -2.04051065      10.14258621       0.00476500       0.00093500      -0.00282700 
      47      -6.11594124      -4.06209176       6.11352815      -0.00101700      -0.00092900      -0.00087500 
      47      -4.08026866      -2.02652141       6.11349877      -0.01162300       0.00041500      -0.00993400 
      47      -2.04459609       0.00904895       6.11346939       0.00022900       0.00274400      -0.00128100 
      47      -0.00892351       2.04461931       6.11344001      -0.00008100       0.00020000      -0.00167300 
      47      -0.01259206       0.01280728       0.02811912      -0.00011400      -0.00120500      -0.00086800 
      47       0.00059035      -2.03635090      10.14367764      -0.00832800       0.00049200      -0.00803800 
      47      -6.09814833      -0.00905790      10.14151737       0.00002700       0.00031500       0.00040400 
      47      -6.10181687      -2.04086993       4.05619648       0.00032900       0.00076300      -0.00043500 
      47      -4.06614430      -0.00529957       4.05616710       0.00005300       0.00026100       0.00031400 
      47      -2.03047172       2.03027079       4.05613772       0.00072200       0.00352600      -0.00136200 
30
Lattice="2.0393411266942367 4.067382377713528 6.085291508054628 -8.134411254548658 -0.0082773601302151 -0.0021308926532447 -0.0046105046394917 -6.102192041182993 6.087569301375042" Properties=Z:I:1:pos:R:3:vasp_force:R:3 uuid=a1463790-5949-447d-9baa-3f3dab4b9dcb vasp_virial="-0.14783820602082137 -0.10143652505419443 -0.12798004587254455 -0.10143652505419443 0.3043881155839892 0.08578184825956327 -0.12798004587254455 0.08578184825956327 -0.20519470496514827" vasp_energy=-108.20115964 pbc="T T T"
      46      -0.01235256      -4.05889530       8.10684968      -0.01141800       0.01435600      -0.00865100 
      46      -6.11109124      -2.03160230       8.10468941      -0.00394000       0.00332800      -0.00653500 
      46      -4.07541866       0.00396805       8.10466003      -0.00920200       0.01122600      -0.00731300 
      46      -4.07908721      -2.02784397       2.01933914      -0.00281400       0.00390700      -0.00746600 
      46      -2.04341463       0.00772639       2.01930976      -0.00380100       0.00476700      -0.00738200 
      46       0.00968935      -2.04562599       6.09530436      -0.00734700      -0.00546900       0.01818400 
      46      -6.08904933      -0.01833299       6.09314409       0.00350100      -0.00415700       0.00721500 
      46      -4.05337675       2.01723736       6.09311471       0.00355200      -0.00457100       0.00567600 
      46      -2.01770417       4.05280772       6.09308533       0.00424000      -0.00379000       0.00727100 
      46      -2.02598323      -4.08119634       6.09533374       0.00424000      -0.00566200       0.00642700 
      47      -2.03077513      -2.05047170       8.08641576       0.06094300       0.00050100       0.00169300 
      47       0.01489744      -0.01489117       8.08638900      -0.00771500      -0.00884700       0.00081300 
      47      -6.08384124       2.01240183       8.08422873       0.00007900       0.00005600       0.00052300 
      47      -6.08750979      -0.01941019       1.99890784      -0.00085600       0.00092500       0.00049200 
      47      -4.05644771      -4.08603188       8.08644776      -0.00824200      -0.00867700       0.00020600 
      47      -2.03092289      -0.00494029      10.14255683       0.00115300       0.00058700       0.00059300 
      47      -2.03459144      -2.03675231       4.05723594       0.00021000       0.00081000      -0.00032900 
      47       0.00108114      -0.00118196       4.05720656       0.00011400       0.00030200       0.00044500 
      47      -6.09765754       2.02611104       4.05504629      -0.00006700       0.00049100      -0.00002400 
      47      -4.06659547      -2.04051065      10.14258621      -0.00688200       0.00027200       0.00894900 
      47      -6.11594124      -4.06209176       6.11352815      -0.00146400      -0.00068300      -0.00040600 
      47      -4.08026866      -2.02652141       6.11349877      -0.01025100      -0.00045800      -0.01087300 
      47      -2.04459609       0.00904895       6.11346939       0.00144200      -0.00036000      -0.00019500 
      47      -0.00892351       2.04461931       6.11344001      -0.00002700       0.00000200      -0.00162700 
      47      -0.01259206       0.01280728       0.02811912      -0.00015000      -0.00097900      -0.00081100 
      47       0.00059035      -2.03635090      10.14367764      -0.00674100       0.00010400      -0.00799200 
      47      -6.09814833      -0.00905790      10.14151737      -0.00038400       0.00050300       0.00080100 
      47      -6.10181687      -2.04086993       4.05619648      -0.00011800       0.00102100       0.00007200 
      47      -4.06614430      -0.00529957       4.05616710       0.00011600       0.00006000       0.00028900 
      47      -2.03047172       2.03027079       4.05613772       0.00182700       0.00043300      -0.00004600 
30
Lattice="2.0393411266942367 4.067382377713528 6.085291508054628 -8.134411254548658 -0.0082773601302151 -0.0021308926532447 -0.0046105046394917 -6.102192041182993 6.087569301375042" Properties=Z:I:1:pos:R:3:vasp_force:R:3 uuid=c48e6a52-99c3-4cfb-8b72-55c1d641971a vasp_virial="-0.13689281289369015 -0.11228766967563854 -0.14156125554205898 -0.11228766967563854 0.3157733350709937 0.08668035068044716 -0.14156125554205898 0.08668035068044716 -0.20046971321336715" vasp_energy=-108.20115152 pbc="T T T"
      46      -0.01235256      -4.05889530       8.10684968       0.00701900      -0.00637400      -0.00841000 
      46      -6.11109124      -2.03160230       8.10468941      -0.00207700       0.00377100      -0.00627500 
      46      -4.07541866       0.00396805       8.10466003       0.00358700      -0.00304900      -0.00719000 
      46      -4.07908721      -2.02784397       2.01933914      -0.00287600       0.00384700      -0.00770900 
      46      -2.04341463       0.00772639       2.01930976      -0.00392000       0.00455100      -0.00739500 
      46       0.00968935      -2.04562599       6.09530436       0.01083700      -0.00523500      -0.00220500 
      46      -6.08904933      -0.01833299       6.09314409       0.00383300      -0.00414100       0.00726300 
      46      -4.05337675       2.01723736       6.09311471       0.00373600      -0.00490800       0.00532700 
      46      -2.01770417       4.05280772       6.09308533       0.00400500      -0.00358000       0.00720700 
      46      -2.02598323      -4.08119634       6.09533374       0.00248600      -0.00549800       0.00667600 
      47      -2.01077514      -2.05045135       8.08642100      -0.06216400      -0.00072300       0.00023800 
      47       0.01489744      -0.01489117       8.08638900       0.00757400       0.00954200       0.00080400 
      47      -6.08384124       2.01240183       8.08422873       0.00065600      -0.00043500       0.00060100 
      47      -6.08750979      -0.01941019       1.99890784      -0.00027900       0.00041100       0.00042900 
      47      -4.05644771      -4.08603188       8.08644776       0.00704700       0.00957000       0.00026300 
      47      -2.03092289      -0.00494029      10.14255683      -0.00119700       0.00053200       0.00063400 
      47      -2.03459144      -2.03675231       4.05723594      -0.00007500       0.00111700      -0.00021300 
      47       0.00108114      -0.00118196       4.05720656       0.00019600       0.00018300       0.00017400 
      47      -6.09765754       2.02611104       4.05504629       0.00063100       0.00067100      -0.00017900 
      47      -4.06659547      -2.04051065      10.14258621       0.00710000       0.00031000      -0.00725700 
      47      -6.11594124      -4.06209176       6.11352815      -0.00050200      -0.00065000      -0.00066500 
      47      -4.08026866      -2.02652141       6.11349877       0.00833900      -0.00089000       0.00969500 