30
Lattice="-1.9924140022741839 -5.974428278098723 3.939220643751506 -5.9731554655246875 5.973635836235959 0.000869530973394 -3.980642177214999 0.0003298071489265 -7.875901864452791" Properties=Z:I:1:pos:R:3:vasp_force:R:3 uuid=f99894b4-f1af-41fa-97a1-10adb100b8c7 vasp_virial="-0.11215447445665751 0.02785148006047718 0.14661720873411513 0.02785148006047718 0.23254889335535436 -0.020178799359302155 0.14661720873411513 -0.020178799359302155 -0.08654865704042668" vasp_energy=-144.31511206 pbc="T T T"
      47      -3.98502529       0.01714127       0.00598392       0.01853700       0.06487800      -0.04027500 
      47      -7.96384233       0.02522336      -3.93684209      -0.00314800       0.00288000       0.00070700 
      47      -7.96469935       0.02493295       0.00153669      -0.00250500       0.00248300       0.00074900 
      47      -5.97304309      -5.94866349      -3.93685593      -0.00236400       0.00291400       0.00113700 
      47      -3.98148611       0.02547438      -3.93769779      -0.00183900       0.00305000       0.00180500 
      46      -7.96333368       1.98951398      -5.90591519      -0.00014400      -0.00708100      -0.00300300 
      46      -7.96419070       1.98922356      -1.96753641      -0.00010500      -0.00591800       0.00055100 
      46      -1.99189226      -3.98470268       1.96997284      -0.00023500      -0.00578400       0.00147400 
      46      -5.97339146      -3.98466329      -1.96755024      -0.00090300      -0.00572300       0.00012900 
      46      -3.98183448       1.98947458      -1.96839210       0.00101300      -0.02099200       0.01628700 
      46      -9.95498557      -1.99168131      -3.93609925      -0.00062300      -0.00120300       0.00055100 
      46      -7.96342859       3.98245656      -3.93694111      -0.00028200       0.00019900      -0.00058400 
      46      -1.99113015      -1.99146969       0.00056814       0.00172500      -0.00384300      -0.00057100 
      46      -5.97262935      -1.99143029      -3.93695494       0.00005400       0.00062800       0.00016100 
      46      -5.97348637      -1.99172070       0.00142384      -0.00995900      -0.00978000      -0.00078300 
      46      -5.97232359       0.00192480      -5.90636714       0.00309900       0.00663300       0.00145200 
      46      -5.97318061       0.00163439      -1.96798836       0.00316900       0.00571600       0.00060200 
      46      -5.97403763       0.00134398       1.97039042      -0.00726000       0.00553300       0.00704700 
      46      -9.95553683       0.00138337      -1.96713266       0.00072000       0.00539100      -0.00113100 
      46      -1.99082439       0.00188540      -1.96884405      -0.00729400       0.00618000       0.00681300 
      46      -1.99129014       1.96567231       0.00046238      -0.00877500      -0.01377100      -0.00234000 
      46      -5.97278934       1.96571171      -3.93706070       0.00416400      -0.00131800      -0.00009300 
      46      -5.97364636       1.96542130       0.00131808       0.00996400      -0.00708900      -0.00182200 
      46      -9.95514556       1.96546069      -3.93620500       0.00378700      -0.00252900       0.00004800 
      46      -3.98284712      -4.00846556       0.00130425       0.00234500      -0.00281300       0.00013100 
      46      -7.96425141      -1.99169154      -1.96733720      -0.00178300       0.00019600      -0.00036100 
      46      -5.97269443       3.98244632      -1.96817906      -0.00057300      -0.00018600       0.00018000 
      46      -9.95419363       3.98248572      -5.90570214      -0.00055800      -0.00050200      -0.00002300 
      46      -3.98189519      -1.99144053      -1.96819289      -0.00002200      -0.00214200      -0.00409300 
      46      -3.98275221      -1.99173094       1.97018589      -0.00020500      -0.01600800       0.01525500 
30
Lattice="-1.9924140022741839 -5.974428278098723 3.939220643751506 -5.9731554655246875 5.973635836235959 0.000869530973394 -3.980642177214999 0.0003298071489265 -7.875901864452791" Properties=Z:I:1:pos:R:3:vasp_force:R:3 uuid=0ed97681-9662-4c15-8db7-51b581c9e40c vasp_virial="-0.09782083086017887 0.028626350634338223 0.14646808269914563 0.028626350634338223 0.24163973340869016 -0.01620795317325197 0.14646808269914563 -0.01620795317325197 -0.07583205080193337" vasp_energy=-144.31517819 pbc="T T T"
      46      -3.98234313       0.02518397       0.00068099      -0.00222200      -0.00440200      -0.00762700 
      46      -7.96384233       0.02522336      -3.93684209      -0.00380700      -0.00513400       0.00905400 
      46      -7.96469935       0.02493295       0.00153669      -0.00231700       0.00247200       0.00079300 
      46      -5.97304309      -5.94866349      -3.93685593      -0.00142300       0.00247800       0.00151600 
      46      -3.98148611       0.02547438      -3.93769779      -0.00164000       0.00223300       0.00139900 
      46      -7.95626290       1.98244262      -5.90591622      -0.05467200       0.05120800       0.00112800 
      46      -7.96419070       1.98922356      -1.96753641      -0.00065800      -0.00565800       0.00046500 
      46      -1.99189226      -3.98470268       1.96997284       0.00049700      -0.00526200       0.00100700 
      46      -5.97339146      -3.98466329      -1.96755024       0.00001800      -0.00547200       0.00092800 
      46      -3.98183448       1.98947458      -1.96839210       0.00093800      -0.00567500       0.00101100 
      46      -9.95498557      -1.99168131      -3.93609925      -0.00087600      -0.00753600       0.00661200 
      46      -7.96342859       3.98245656      -3.93694111      -0.00112600      -0.00763700      -0.00702500 
      46      -1.99113015      -1.99146969       0.00056814      -0.00172400      -0.00005100      -0.00037800 
      46      -5.97262935      -1.99143029      -3.93695494       0.00019400      -0.00020000       0.00027000 
      46      -5.97348637      -1.99172070       0.00142384      -0.00121500      -0.00064200       0.00008100 
      46      -5.97232359       0.00192480      -5.90636714       0.01489700      -0.00851200      -0.00084800 
      46      -5.97318061       0.00163439      -1.96798836       0.00046600       0.00452700      -0.00067600 
      46      -5.97403763       0.00134398       1.97039042      -0.00100600       0.00649200      -0.00143800 
      46      -9.95553683       0.00138337      -1.96713266       0.00068900       0.00479000      -0.00084600 
      46      -1.99082439       0.00188540      -1.96884405       0.00023600       0.00555700      -0.00124400 
      46      -1.99129014       1.96567231       0.00046238       0.01051900      -0.00109100      -0.00860100 
      46      -5.97278934       1.96571171      -3.93706070       0.01041400      -0.00119100       0.00677000 
      46      -5.97364636       1.96542130       0.00131808       0.00977700      -0.00119900       0.00572800 
      46      -9.95514556       1.96546069      -3.93620500       0.01004100      -0.00204900      -0.00708800 
      46      -3.98284712      -4.00846556       0.00130425       0.00301600      -0.00195800      -0.00052400 
      47      -7.96425141      -1.99169154      -1.96733720      -0.00309600       0.00163400      -0.00008500 
      47      -5.97269443       3.98244632      -1.96817906      -0.00054200      -0.00002600       0.00019300 
      47      -9.95419363       3.98248572      -5.90570214       0.01550800      -0.01671700      -0.00002400 
      47      -3.98189519      -1.99144053      -1.96819289      -0.00028200      -0.00022500      -0.00014500 
      47      -3.98275221      -1.99173094       1.97018589      -0.00060600      -0.00075500      -0.00040400 
30
Lattice="-1.9924140022741839 -5.974428278098723 3.939220643751506 -5.9731554655246875 5.973635836235959 0.000869530973394 -3.980642177214999 0.0003298071489265 -7.875901864452791" Properties=Z:I:1:pos:R:3:vasp_force:R:3 uuid=cc2d9fa1-0974-4934-a5fd-b1c8c63bb74a vasp_virial="-0.0970547324060219 0.02944508180671971 0.14743886394639796 0.02944508180671971 0.23723905335713968 -0.0024503454373417197 0.14743886394639796 -0.0024503454373417197 -0.0870457438236583" vasp_energy=-144.31512629 pbc="T T T"
      46      -3.98234313       0.02518397       0.00068099      -0.00103700      -0.00789000      -0.00829500 
      46      -7.96384233       0.02522336      -3.93684209      -0.00217600       0.01329400      -0.00855500 
      46      -7.96469935       0.02493295       0.00153669      -0.00330300       0.00149800       0.00074800 
      46      -5.97304309      -5.94866349      -3.93685593      -0.00218400       0.00316200       0.00153100 
      46      -3.98148611       0.02547438      -3.93769779      -0.00239700       0.00302800       0.00125300 
      46      -7.96784447       1.98951435      -5.91484002       0.03512300      -0.00574000       0.07072700 
      46      -7.96419070       1.98922356      -1.96753641      -0.00036000      -0.00589800      -0.00008000 
      46      -1.99189226      -3.98470268       1.96997284      -0.00048300      -0.00542300       0.00101600 
      46      -5.97339146      -3.98466329      -1.96755024      -0.00078000      -0.00567400       0.00065400 
      46      -3.98183448       1.98947458      -1.96839210       0.00111700      -0.00603200       0.00049600 
      46      -9.95498557      -1.99168131      -3.93609925       0.00021000       0.01010900      -0.00860800 
      46      -7.96342859       3.98245656      -3.93694111      -0.00013500      -0.01000900      -0.00921900 
      46      -1.99113015      -1.99146969       0.00056814      -0.00246200       0.00042900      -0.00021400 
      46      -5.97262935      -1.99143029      -3.93695494      -0.00055400       0.00040300       0.00020200 
      46      -5.97348637      -1.99172070       0.00142384      -0.00180000      -0.00104500      -0.00003300 
      46      -5.97232359       0.00192480      -5.90636714      -0.00354500       0.01100800      -0.00073000 
      46      -5.97318061       0.00163439      -1.96798836       0.00021800       0.00500000      -0.00184100 
      46      -5.97403763       0.00134398       1.97039042      -0.00338400      -0.00067400      -0.00075900 
      46      -9.95553683       0.00138337      -1.96713266       0.00078200       0.00567500      -0.00158000 
      46      -1.99082439       0.00188540      -1.96884405       0.00044100       0.00536100      -0.00106700 
      46      -1.99129014       1.96567231       0.00046238       0.00956300      -0.00171000      -0.00551400 
      46      -5.97278934       1.96571171      -3.93706070      -0.01065300      -0.00145500      -0.01302600 
      46      -5.97364636       1.96542130       0.00131808      -0.01119300      -0.00235700      -0.01416100 
      46      -9.95514556       1.96546069      -3.93620500       0.00905800      -0.00263500      -0.00419500 
      46      -3.98284712      -4.00846556       0.00130425       0.00326900      -0.00206900      -0.00036200 
      47      -7.96425141      -1.99169154      -1.96733720      -0.00646400      -0.00529200       0.00107100 
      47      -5.97269443       3.98244632      -1.96817906      -0.00078100      -0.00015700      -0.00033000 
      47      -9.95419363       3.98248572      -5.90570214      -0.00558100       0.00554400       0.00145500 
      47      -3.98189519      -1.99144053      -1.96819289      -0.00032100      -0.00022600      -0.00007800 
      47      -3.98275221      -1.99173094       1.97018589      -0.00018600      -0.00022400      -0.00050600 
30
Lattice="-1.9924140022741839 -5.974428278098723 3.939220643751506 -5.9731554655246875 5.973635836235959 0.000869530973394 -3.980642177214999 0.0003298071489265 -7.875901864452791" Properties=Z:I:1:pos:R:3:vasp_force:R:3 uuid=cea6d04f-d964-4de7-83bd-142a340a2b7b vasp_virial="-0.09726526327892 0.029032792180627605 0.14704996663951678 0.029032792180627605 0.23768350742214678 -0.030699494924404193 0.14704996663951678 -0.030699494924404193 -0.08640830312516128" vasp_energy=-144.31515966 pbc="T T T"
      46      -3.98234313       0.02518397       0.00068099      -0.00189100       0.01363600       0.00994500 
      46      -7.96384233       0.02522336      -3.93684209      -0.00357500      -0.00861400       0.00951100 
      46      -7.96469935       0.02493295       0.00153669      -0.00158000       0.00297500       0.00105900 
      46      -5.97304309      -5.94866349      -3.93685593      -0.00235600       0.00245900       0.00152100 
      46      -3.98148611       0.02547438      -3.93769779      -0.00178400       0.00251700       0.00134900 
      46      -7.95882288       1.98951360      -5.89699035      -0.03565500      -0.00548400      -0.06715200 
      46      -7.96419070       1.98922356      -1.96753641      -0.00056500      -0.00565000       0.00120900 
      46      -1.99189226      -3.98470268       1.96997284       0.00052100      -0.00553400       0.00095400 
      46      -5.97339146      -3.98466329      -1.96755024      -0.00009100      -0.00562400       0.00075800 
      46      -3.98183448       1.98947458      -1.96839210       0.00072500      -0.00597800       0.00186600 
      46      -9.95498557      -1.99168131      -3.93609925      -0.00088600      -0.00987400       0.00880100 
      46      -7.96342859       3.98245656      -3.93694111      -0.00098600       0.00960700       0.00801000 
      46      -1.99113015      -1.99146969       0.00056814      -0.00207000       0.00041100      -0.00029800 
      46      -5.97262935      -1.99143029      -3.93695494      -0.00028700      -0.00030300       0.00020100 
      46      -5.97348637      -1.99172070       0.00142384      -0.00044500       0.00004500       0.00013400 
      46      -5.97232359       0.00192480      -5.90636714       0.00446400       0.00103100      -0.00101400 
      46      -5.97318061       0.00163439      -1.96798836       0.00092500       0.00483500      -0.00032700 
      46      -5.97403763       0.00134398       1.97039042       0.00465200       0.00999100      -0.00167900 
      46      -9.95553683       0.00138337      -1.96713266       0.00051800       0.00506500      -0.00032600 
      46      -1.99082439       0.00188540      -1.96884405       0.00001700       0.00548900      -0.00099900 
      46      -1.99129014       1.96567231       0.00046238      -0.00179900      -0.00173900       0.00235400 
      46      -5.97278934       1.96571171      -3.93706070       0.01818200      -0.00224400       0.01262500 
      46      -5.97364636       1.96542130       0.00131808       0.01677200      -0.00146500       0.01133200 
      46      -9.95514556       1.96546069      -3.93620500      -0.00187700      -0.00307600       0.00382800 
      46      -3.98284712      -4.00846556       0.00130425       0.00307700      -0.00199500      -0.00088600 
      47      -7.96425141      -1.99169154      -1.96733720       0.00315700       0.00594600      -0.00151000 
      47      -5.97269443       3.98244632      -1.96817906      -0.00021400       0.00002200       0.00038600 
      47      -9.95419363       3.98248572      -5.90570214       0.00409800      -0.00616300      -0.00150400 
      47      -3.98189519      -1.99144053      -1.96819289      -0.00041100       0.00002100       0.00029700 
      47      -3.98275221      -1.99173094       1.97018589      -0.00063800      -0.00030300      -0.00044600 
30
Lattice="-1.9924140022741839 -5.974428278098723 3.939220643751506 -5.9731554655246875 5.973635836235959 0.000869530973394 -3.980642177214999 0.0003298071489265 -7.875901864452791" Properties=Z:I:1:pos:R:3:vasp_force:R:3 uuid=40c2ccdc-907c-413a-906d-67ce58399e24 vasp_virial="-0.09669507549815431 0.030483115971703372 0.1463423489833871 0.030483115971703372 0.23703437056404436 -0.016573458160922275 0.1463423489833871 -0.016573458160922275 -0.08714516118030462" vasp_energy=-144.31515243 pbc="T T T"
      46      -3.98234313       0.02518397       0.00068099      -0.00174700       0.00186600       0.00126700 
      46      -7.96384233       0.02522336      -3.93684209      -0.01298400      -0.00577800      -0.00035100 
      46      -7.96469935       0.02493295       0.00153669      -0.00158300       0.00278500       0.00099700 
      46      -5.97304309      -5.94866349      -3.93685593       0.00314000      -0.00198900       0.00105400 
      46      -3.98148611       0.02547438      -3.93769779      -0.00188100       0.00325300       0.00130400 
      46      -7.96333368       1.98951398      -5.90591519      -0.00030000      -0.01898800       0.01590600 
      46      -7.96419070       1.98922356      -1.96753641      -0.00054500      -0.00611000      -0.00003900 
      46      -1.99189226      -3.98470268       1.96997284      -0.00018700      -0.00580900       0.00139000 
      46      -5.97339146      -3.98466329      -1.96755024      -0.00028500      -0.00577800       0.00056800 
      46      -3.98183448       1.98947458      -1.96839210       0.00107900      -0.00969900      -0.00247100 
      46      -7.96525373       3.97470428      -7.87001696       0.02034700       0.05846700      -0.04367800 
      46      -7.96342859       3.98245656      -3.93694111      -0.00048600      -0.00041400      -0.00030900 
      46      -1.99113015      -1.99146969       0.00056814      -0.00240200       0.00021700      -0.00029400 
      46      -5.97262935      -1.99143029      -3.93695494      -0.00057400      -0.00014300       0.00014900 
      46      -5.97348637      -1.99172070       0.00142384      -0.00107900      -0.00056400       0.00046600 
      46      -5.97232359       0.00192480      -5.90636714       0.00027500       0.00569600      -0.00045900 
      46      -5.97318061       0.00163439      -1.96798836       0.00049200       0.00458900      -0.00167500 
      46      -5.97403763       0.00134398       1.97039042       0.00065400      -0.00870700       0.01278400 
      46      -9.95553683       0.00138337      -1.96713266       0.00079300       0.00168000      -0.00458400 
      46      -1.99082439       0.00188540      -1.96884405       0.00036900       0.00529900      -0.00115900 
      46      -1.99129014       1.96567231       0.00046238       0.00935000      -0.00660500      -0.00205100 
      46      -5.97278934       1.96571171      -3.93706070       0.00427800      -0.00130800      -0.00041500 
      46      -5.97364636       1.96542130       0.00131808      -0.00737600      -0.01053900      -0.00184100 
      46      -9.95514556       1.96546069      -3.93620500       0.00337800      -0.00404700       0.00011600 
      46      -3.98284712      -4.00846556       0.00130425       0.00339100      -0.00154000      -0.00060500 
      47      -7.96425141      -1.99169154      -1.96733720       0.00243500       0.00142300       0.00234800 
      47      -5.97269443       3.98244632      -1.96817906       0.00360400       0.00101900       0.00259600 
      47      -9.95419363       3.98248572      -5.90570214      -0.01115300       0.00091000       0.00972500 
      47      -3.98189519      -1.99144053      -1.96819289      -0.00040400      -0.00006800       0.00017700 
      47      -3.98275221      -1.99173094       1.97018589      -0.01059700       0.00088500       0.00908400 
30
Lattice="-1.9924140022741839 -5.974428278098723 3.939220643751506 -5.9731554655246875 5.973635836235959 0.000869530973394 -3.980642177214999 0.0003298071489265 -7.875901864452791" Properties=Z:I:1:pos:R:3:vasp_force:R:3 uuid=d24f7c96-f6cc-4d3f-8eb8-1fe506075895 vasp_virial="-0.09706642856562733 0.030184863901764402 0.14611719791098218 0.030184863901764402 0.2379174306142558 -0.016816153472735355 0.14611719791098218 -0.016816153472735355 -0.08703989574385555" vasp_energy=-144.31514977 pbc="T T T"
      46      -3.98234313       0.02518397       0.00068099      -0.00120200       0.00416800       0.00064600 
      46      -7.96384233       0.02522336      -3.93684209       0.00768800       0.01109900       0.00109900 
      46      -7.96469935       0.02493295       0.00153669      -0.00325400       0.00164200       0.00084500 
      46      -5.97304309      -5.94866349      -3.93685593      -0.00774500       0.00761200       0.00203200 
      46      -3.98148611       0.02547438      -3.93769779      -0.00228300       0.00222000       0.00130700 
      46      -7.96333368       1.98951398      -5.90591519      -0.00035800       0.00831500      -0.01275800 
      46      -7.96419070       1.98922356      -1.96753641      -0.00036100      -0.00551100       0.00116600 
      46      -1.99189226      -3.98470268       1.96997284       0.00022400      -0.00521200       0.00061700 
      46      -5.97339146      -3.98466329      -1.96755024      -0.00053900      -0.00558700       0.00085500 
      46      -3.98183448       1.98947458      -1.96839210       0.00081400      -0.00237400       0.00484100 
      46      -9.95230341      -1.98363861      -3.94140217      -0.02166900      -0.05787900       0.04454500 
      46      -7.96342859       3.98245656      -3.93694111      -0.00055000      -0.00034500      -0.00110200 
      46      -1.99113015      -1.99146969       0.00056814      -0.00208500       0.00054200      -0.00018200 
      46      -5.97262935      -1.99143029      -3.93695494      -0.00025600       0.00018200       0.00026100 
      46      -5.97348637      -1.99172070       0.00142384      -0.00114400      -0.00049500      -0.00032800 
      46      -5.97232359       0.00192480      -5.90636714       0.00068700       0.00629400      -0.00123300 
      46      -5.97318061       0.00163439      -1.96798836       0.00067600       0.00518700      -0.00047100 
      46      -5.97403763       0.00134398       1.97039042       0.00059300       0.01858600      -0.01586700 
      46      -9.95553683       0.00138337      -1.96713266       0.00052500       0.00900200       0.00272400 
      46      -1.99082439       0.00188540      -1.96884405       0.00011400       0.00549000      -0.00087100 
      46      -1.99129014       1.96567231       0.00046238      -0.00155500       0.00301500      -0.00107200 
      46      -5.97278934       1.96571171      -3.93706070       0.00260500      -0.00245200      -0.00056700 
      46      -5.97364636       1.96542130       0.00131808       0.01325300       0.00629200      -0.00039300 
      46      -9.95514556       1.96546069      -3.93620500       0.00392200      -0.00174400      -0.00050400 
      46      -3.98284712      -4.00846556       0.00130425       0.00298800      -0.00257300      -0.00060200 
      47      -7.96425141      -1.99169154      -1.96733720      -0.00574800      -0.00086400      -0.00274100 
      47      -5.97269443       3.98244632      -1.96817906      -0.00457900      -0.00126600      -0.00249400 
      47      -9.95419363       3.98248572      -5.90570214       0.00949000      -0.00155600      -0.00958200 
      47      -3.98189519      -1.99144053      -1.96819289      -0.00029600      -0.00020600       0.00005500 
      47      -3.98275221      -1.99173094       1.97018589       0.01004700      -0.00158300      -0.01022500 
30
Lattice="-1.9924140022741839 -5.974428278098723 3.939220643751506 -5.9731554655246875 5.973635836235959 0.000869530973394 -3.980642177214999 0.0003298071489265 -7.875901864452791" Properties=Z:I:1:pos:R:3:vasp_force:R:3 uuid=76a1a196-2b38-437d-8e7f-429ad406a727 vasp_virial="-0.09771848946363117 0.029357360609678838 0.1462341595070367 0.029357360609678838 0.23657529629953042 -0.016368775367826903 0.1462341595070367 -0.016368775367826903 -0.08745218536994767" vasp_energy=-144.3151578 pbc="T T T"
      46      -3.98234313       0.02518397       0.00068099      -0.00115000       0.00371200       0.00093200 
      46      -7.96384233       0.02522336      -3.93684209      -0.00174700       0.00254900       0.00041900 
      46      -7.96469935       0.02493295       0.00153669      -0.00211200       0.00197700       0.00086400 
      46      -5.97304309      -5.94866349      -3.93685593      -0.01510400       0.01447000       0.00152800 
      46      -3.98148611       0.02547438      -3.93769779      -0.00198700       0.00248500       0.00134000 
      46      -7.96333368       1.98951398      -5.90591519       0.00011300       0.00245100      -0.00635500 
      46      -7.96419070       1.98922356      -1.96753641      -0.00053800      -0.00582100       0.00051700 
      46      -1.99189226      -3.98470268       1.96997284      -0.00049800      -0.00514600       0.00089300 
      46      -5.97339146      -3.98466329      -1.96755024      -0.00082400      -0.00506300       0.00078700 
      46      -3.98183448       1.98947458      -1.96839210       0.00150400       0.00124900       0.00893900 
      46      -9.96205635      -1.98460995      -3.93609822       0.05458600      -0.05106000       0.00042800 
      46      -7.96342859       3.98245656      -3.93694111      -0.00052000      -0.00030000      -0.00068600 
      46      -1.99113015      -1.99146969       0.00056814      -0.00271200       0.00055200      -0.00024300 
      46      -5.97262935      -1.99143029      -3.93695494      -0.00087600       0.00018100       0.00021100 
      46      -5.97348637      -1.99172070       0.00142384      -0.00111200      -0.00044800       0.00007900 
      46      -5.97232359       0.00192480      -5.90636714      -0.00005500       0.00636200      -0.00094200 
      46      -5.97318061       0.00163439      -1.96798836       0.00049900       0.00488000      -0.00111100 
      46      -5.97403763       0.00134398       1.97039042       0.00116900       0.01227700      -0.00902600 
      46      -9.95553683       0.00138337      -1.96713266       0.00128600       0.01278100       0.00697000 
      46      -1.99082439       0.00188540      -1.96884405      -0.00017500       0.00600400      -0.00095700 
      46      -1.99129014       1.96567231       0.00046238      -0.00836500       0.00929900      -0.00155600 
      46      -5.97278934       1.96571171      -3.93706070       0.00377600      -0.00209500      -0.00053500 
      46      -5.97364636       1.96542130       0.00131808       0.00424300      -0.00186200      -0.00104500 
      46      -9.95514556       1.96546069      -3.93620500       0.00396400      -0.00219800      -0.00022900 
      46      -3.98284712      -4.00846556       0.00130425       0.00329400      -0.00233300      -0.00058400 
      47      -7.96425141      -1.99169154      -1.96733720      -0.00985600      -0.00075500      -0.00968000 
      47      -5.97269443       3.98244632      -1.96817906      -0.00882600      -0.00120300      -0.00967000 
      47      -9.95419363       3.98248572      -5.90570214      -0.00901300      -0.00144100       0.00959900 
      47      -3.98189519      -1.99144053      -1.96819289      -0.00040300      -0.00020200       0.00014900 
      47      -3.98275221      -1.99173094       1.97018589      -0.00856300      -0.00130000       0.00896300 
30
Lattice="-1.9924140022741839 -5.974428278098723 3.939220643751506 -5.9731554655246875 5.973635836235959 0.000869530973394 -3.980642177214999 0.0003298071489265 -7.875901864452791" Properties=Z:I:1:pos:R:3:vasp_force:R:3 uuid=e7bd94a9-047a-4cbc-8834-14075130e032 vasp_virial="-0.09732374407694724 0.02939244908849518 0.14685990404592822 0.02939244908849518 0.23663085305765627 -0.015494487437319538 0.14685990404592822 -0.015494487437319538 -0.08746680556945448" vasp_energy=-144.31515022 pbc="T T T"
      46      -3.98234313       0.02518397       0.00068099      -0.00178700       0.00231500       0.00098600 
      46      -7.96384233       0.02522336      -3.93684209      -0.00395100       0.00239500       0.00029800 
      46      -7.96469935       0.02493295       0.00153669      -0.00275100       0.00242400       0.00095900 
      46      -5.97304309      -5.94866349      -3.93685593       0.00994500      -0.00826700       0.00153400 
      46      -3.98148611       0.02547438      -3.93769779      -0.00218400       0.00300900       0.00127900 
      46      -7.96333368       1.98951398      -5.90591519      -0.00087300      -0.01267800       0.00905500 
      46      -7.96419070       1.98922356      -1.96753641      -0.00036400      -0.00580800       0.00059600 
      46      -1.99189226      -3.98470268       1.96997284       0.00055800      -0.00588100       0.00109300 
      46      -5.97339146      -3.98466329      -1.96755024       0.00000800      -0.00629600       0.00064900 
      46      -3.98183448       1.98947458      -1.96839210       0.00031900      -0.01348200      -0.00672300 
      46      -9.94791478      -1.99875266      -3.93610028      -0.05599700       0.05176300       0.00059600 
      46      -7.96342859       3.98245656      -3.93694111      -0.00051400      -0.00046400      -0.00072300 
      46      -1.99113015      -1.99146969       0.00056814      -0.00178000       0.00021600      -0.00024900 
      46      -5.97262935      -1.99143029      -3.93695494       0.00005500      -0.00015600       0.00020600 
      46      -5.97348637      -1.99172070       0.00142384      -0.00110600      -0.00061200       0.00004200 
      46      -5.97232359       0.00192480      -5.90636714       0.00100000       0.00562700      -0.00074000 
      46      -5.97318061       0.00163439      -1.96798836       0.00067100       0.00489400      -0.00103100 
      46      -5.97403763       0.00134398       1.97039042       0.00018700      -0.00285200       0.00638000 
      46      -9.95553683       0.00138337      -1.96713266       0.00010700      -0.00194800      -0.00868700 
      46      -1.99082439       0.00188540      -1.96884405       0.00065700       0.00477000      -0.00109500 
      46      -1.99129014       1.96567231       0.00046238       0.01672100      -0.01347800      -0.00155100 