  32
   1   1
     6.411692840163780    -0.062561223878824     0.016495088628837
    -0.041904512593866     6.428785004054466     0.026237402620515
    -0.049839544352547    -0.004985342713757     6.881915604942434
   1   2
    -0.820626002884908    -0.874358659062871     0.007001851839170
    -0.877599309327258    -0.816391888823214    -0.008950366374020
     0.000965828873504    -0.001508891748929     0.031293264223629
   1   3
     0.038648575776871    -0.029926536712350    -0.011064021247370
    -0.047476686268462    -0.018156119647250     0.011149555895618
    -0.010217750843207    -0.013268559528645     0.034733905414658
   1   4
    -0.837273531408512     0.886261232932526    -0.010838872946433
     0.885902607764727    -0.790451032707657     0.008442151694633
    -0.003698221152577     0.003122562543029     0.045404174307757
   1   5
     0.010678324438607     0.050917335450308    -0.006564597844312
     0.033226955771697    -0.088485152041383     0.008417387883184
    -0.006030140484554    -0.016093064086092     0.043909750273142
   1   6
     0.010438899409092     0.006670841068771     0.006675833639229
     0.003153245342243    -0.000327396024056    -0.007216496030335
     0.000429118718187     0.000278869301785    -0.031923390436311
   1   7
     0.010678324438607     0.050917335450308    -0.006564597844312
     0.033226955771697    -0.088485152041383     0.008417387883184
    -0.006030140484554    -0.016093064086092     0.043909750273142
   1   8
    -0.837273531408512     0.886261232932526    -0.010838872946433
     0.885902607764727    -0.790451032707656     0.008442151694633
    -0.003698221152577     0.003122562543029     0.045404174307757
   1   9
    -0.104873334694541    -0.021334070794878     0.011111597124825
     0.050011995091753     0.045869505866315    -0.017701176908871
     0.064428089620028     0.032809195549066     0.006639295083772
   1  10
    -0.820626002884908    -0.874358659062871     0.007001851839170
    -0.877599309327258    -0.816391888823214    -0.008950366374020
     0.000965828873504    -0.001508891748929     0.031293264223629
   1  11
    -0.104873334694541    -0.021334070794878     0.011111597124825
     0.050011995091753     0.045869505866315    -0.017701176908871
     0.064428089620028     0.032809195549066     0.006639295083772
   1  12
     0.059758076138186     0.005969835223684     0.002399984964115
    -0.038290590221414     0.063165055654043    -0.006415348113140
    -0.050430846757522    -0.003741391075509    -0.104735550565707
   1  13
     0.010438899409092     0.006670841068771     0.006675833639229
     0.003153245342243    -0.000327396024056    -0.007216496030335
     0.000429118718187     0.000278869301785    -0.031923390436311
   1  14
     0.010789515943359    -0.001928172850898    -0.004575970223038
    -0.002546328122850    -0.029147037639825     0.003398784840843
     0.002303696879493    -0.002002671996400    -0.021218909059315
   1  15
     0.038648575776871    -0.029926536712350    -0.011064021247370
    -0.047476686268462    -0.018156119647250     0.011149555895618
    -0.010217750843207    -0.013268559528645     0.034733905414658
   1  16
     0.010789515943359    -0.001928172850898    -0.004575970223038
    -0.002546328122850    -0.029147037639825     0.003398784840843
     0.002303696879493    -0.002002671996400    -0.021218909059315
   1  17
    -0.848612896178533     0.006305581024807    -0.982588109235915
    -0.001408082737605     0.095678679979088    -0.001404132875133
    -0.951238645384972    -0.009594922365054    -0.862705770686181
   1  18
    -0.012818880807873     0.004951840522349    -0.028863812895314
     0.000682199528348    -0.012527840478477     0.001890344150113
    -0.019239793942176    -0.000110146617643    -0.006969322081642
   1  19
    -0.028427781362584     0.008179580884785     0.010536791412204
     0.048083950939776    -0.008346353399540    -0.016612295556525
     0.043487165575894     0.012610081477035    -0.016216264920303
   1  20
     0.094659896938149    -0.003293683431829    -0.001091450764592
    -0.002764933723503    -0.843250177446145    -0.977443195217340
    -0.004602152098031    -0.945577967264440    -0.868056250218623
   1  21
     0.018386613321487    -0.010497853792910    -0.008622332819469
    -0.040504875494945    -0.020464806374428    -0.031860207171373
    -0.029755478393724    -0.022498750748999    -0.004625711901404
   1  22
     0.094659896938149    -0.003293683431829    -0.001091450764592
    -0.002764933723503    -0.843250177446145    -0.977443195217340
    -0.004602152098031    -0.945577967264440    -0.868056250218623
   1  23
    -0.028427781362584     0.008179580884785     0.010536791412204
     0.048083950939776    -0.008346353399540    -0.016612295556525
     0.043487165575894     0.012610081477035    -0.016216264920303
   1  24
    -0.012818880807873     0.004951840522349    -0.028863812895314
     0.000682199528348    -0.012527840478477     0.001890344150113
    -0.019239793942176    -0.000110146617643    -0.006969322081642
   1  25
    -0.848612896178533     0.006305581024807    -0.982588109235915
    -0.001408082737605     0.095678679979088    -0.001404132875133
    -0.951238645384972    -0.009594922365054    -0.862705770686181
   1  26
     0.097359444969962    -0.000650492670119     0.001600395318272
    -0.002292649161908    -0.842371082639718     0.977877498699624
     0.003538027698497     0.959611194823927    -0.867291365995996
   1  27
    -0.848171530725512     0.004143996804458     0.970399222775458
    -0.007306811053189     0.092738423952063     0.014581344043748
     0.943167465522309    -0.003187890211160    -0.864849948715331
   1  28
    -0.848171530725512     0.004143996804458     0.970399222775458
    -0.007306811053189     0.092738423952063     0.014581344043748
     0.943167465522309    -0.003187890211160    -0.864849948715331
   1  29
    -0.016322388774624     0.004513754199219     0.027846512525128
     0.002051083656761    -0.011775959868691    -0.002053766564853
     0.022650408988973    -0.009664183873136    -0.006861058934115
   1  30
     0.097359444969962    -0.000650492670119     0.001600395318272
    -0.002292649161908    -0.842371082639718     0.977877498699624
     0.003538027698497     0.959611194823927    -0.867291365995996
   1  31
     0.019268594723809    -0.013816972816661     0.010554279916602
    -0.042728653271711    -0.017598951497915     0.023283521804643
    -0.041859327341672     0.016378272703678    -0.004330558400984
   1  32
    -0.016322388774624     0.004513754199219     0.027846512525128
     0.002051083656761    -0.011775959868691    -0.002053766564853
     0.022650408988973    -0.009664183873136    -0.006861058934115
   2   1
    -0.820626002884908    -0.874358659062871     0.007001851839170
    -0.877599309327258    -0.816391888823214    -0.008950366374020
     0.000965828873504    -0.001508891748929     0.031293264223629
   2   2
     6.411692840163780    -0.062561223878824     0.016495088628837
    -0.041904512593866     6.428785004054468     0.026237402620515
    -0.049839544352547    -0.004985342713757     6.881915604942434
   2   3
    -0.820626002884908    -0.874358659062871     0.007001851839170
    -0.877599309327258    -0.816391888823214    -0.008950366374020
     0.000965828873504    -0.001508891748929     0.031293264223629
   2   4
    -0.104873334694541    -0.021334070794878     0.011111597124825
     0.050011995091753     0.045869505866315    -0.017701176908871
     0.064428089620028     0.032809195549066     0.006639295083772
   2   5
    -0.837273531408512     0.886261232932526    -0.010838872946433
     0.885902607764727    -0.790451032707657     0.008442151694633
    -0.003698221152577     0.003122562543029     0.045404174307757
   2   6
     0.010678324438607     0.050917335450308    -0.006564597844312
     0.033226955771697    -0.088485152041383     0.008417387883184
    -0.006030140484554    -0.016093064086092     0.043909750273142
   2   7
     0.010438899409092     0.006670841068771     0.006675833639229
     0.003153245342243    -0.000327396024056    -0.007216496030335
     0.000429118718187     0.000278869301785    -0.031923390436311
   2   8
     0.010678324438607     0.050917335450308    -0.006564597844312
     0.033226955771697    -0.088485152041383     0.008417387883184
    -0.006030140484554    -0.016093064086092     0.043909750273142
   2   9
    -0.837273531408512     0.886261232932526    -0.010838872946433
     0.885902607764727    -0.790451032707657     0.008442151694633
    -0.003698221152577     0.003122562543029     0.045404174307757
   2  10
     0.038648575776871    -0.029926536712350    -0.011064021247370
    -0.047476686268462    -0.018156119647250     0.011149555895618
    -0.010217750843207    -0.013268559528645     0.034733905414658
   2  11
     0.010789515943359    -0.001928172850898    -0.004575970223038
    -0.002546328122850    -0.029147037639825     0.003398784840843
     0.002303696879493    -0.002002671996400    -0.021218909059315
   2  12
     0.010438899409092     0.006670841068771     0.006675833639229
     0.003153245342243    -0.000327396024056    -0.007216496030335
     0.000429118718187     0.000278869301785    -0.031923390436311
   2  13
     0.059758076138186     0.005969835223684     0.002399984964115
    -0.038290590221414     0.063165055654043    -0.006415348113140
    -0.050430846757522    -0.003741391075509    -0.104735550565707
   2  14
    -0.104873334694541    -0.021334070794878     0.011111597124825
     0.050011995091753     0.045869505866315    -0.017701176908871
     0.064428089620028     0.032809195549066     0.006639295083772
   2  15
     0.010789515943359    -0.001928172850898    -0.004575970223038
    -0.002546328122850    -0.029147037639825     0.003398784840843
     0.002303696879493    -0.002002671996400    -0.021218909059315
   2  16
     0.038648575776871    -0.029926536712350    -0.011064021247370
    -0.047476686268462    -0.018156119647250     0.011149555895618
    -0.010217750843207    -0.013268559528645     0.034733905414658
   2  17
     0.097359444969962    -0.000650492670119     0.001600395318272
    -0.002292649161908    -0.842371082639718     0.977877498699625
     0.003538027698497     0.959611194823927    -0.867291365995996
   2  18
    -0.848612896178533     0.006305581024807    -0.982588109235915
    -0.001408082737605     0.095678679979088    -0.001404132875133
    -0.951238645384972    -0.009594922365054    -0.862705770686181
   2  19
    -0.012818880807873     0.004951840522349    -0.028863812895314
     0.000682199528348    -0.012527840478477     0.001890344150113
    -0.019239793942176    -0.000110146617643    -0.006969322081642
   2  20
    -0.848171530725512     0.004143996804458     0.970399222775458
    -0.007306811053189     0.092738423952063     0.014581344043748
     0.943167465522309    -0.003187890211160    -0.864849948715331
   2  21
     0.094659896938149    -0.003293683431829    -0.001091450764592
    -0.002764933723503    -0.843250177446145    -0.977443195217340
    -0.004602152098031    -0.945577967264441    -0.868056250218623
   2  22
     0.018386613321487    -0.010497853792910    -0.008622332819469
    -0.040504875494945    -0.020464806374428    -0.031860207171373
    -0.029755478393724    -0.022498750748999    -0.004625711901404
   2  23
    -0.016322388774624     0.004513754199219     0.027846512525128
     0.002051083656761    -0.011775959868691    -0.002053766564853
     0.022650408988973    -0.009664183873136    -0.006861058934115
   2  24
    -0.028427781362584     0.008179580884785     0.010536791412204
     0.048083950939776    -0.008346353399540    -0.016612295556525
     0.043487165575894     0.012610081477035    -0.016216264920303
   2  25
    -0.012818880807873     0.004951840522349    -0.028863812895314
     0.000682199528348    -0.012527840478477     0.001890344150113
    -0.019239793942176    -0.000110146617643    -0.006969322081642
   2  26
     0.019268594723809    -0.013816972816661     0.010554279916602
    -0.042728653271711    -0.017598951497915     0.023283521804643
    -0.041859327341672     0.016378272703678    -0.004330558400984
   2  27
    -0.016322388774624     0.004513754199219     0.027846512525128
     0.002051083656761    -0.011775959868691    -0.002053766564853
     0.022650408988973    -0.009664183873136    -0.006861058934115
   2  28
     0.094659896938149    -0.003293683431829    -0.001091450764592
    -0.002764933723503    -0.843250177446145    -0.977443195217340
    -0.004602152098031    -0.945577967264441    -0.868056250218623
   2  29
    -0.848171530725512     0.004143996804458     0.970399222775458
    -0.007306811053189     0.092738423952063     0.014581344043748
     0.943167465522309    -0.003187890211160    -0.864849948715331
   2  30
    -0.848612896178533     0.006305581024807    -0.982588109235915
    -0.001408082737605     0.095678679979088    -0.001404132875133
    -0.951238645384972    -0.009594922365054    -0.862705770686181
   2  31
     0.097359444969962    -0.000650492670119     0.001600395318272
    -0.002292649161908    -0.842371082639718     0.977877498699625
     0.003538027698497     0.959611194823927    -0.867291365995996
   2  32
    -0.028427781362584     0.008179580884785     0.010536791412204
     0.048083950939776    -0.008346353399540    -0.016612295556525
     0.043487165575894     0.012610081477035    -0.016216264920303
   3   1
     0.038648575776871    -0.029926536712350    -0.011064021247370
    -0.047476686268462    -0.018156119647250     0.011149555895618
    -0.010217750843207    -0.013268559528645     0.034733905414658
   3   2
    -0.820626002884908    -0.874358659062871     0.007001851839170
    -0.877599309327258    -0.816391888823214    -0.008950366374020
     0.000965828873504    -0.001508891748929     0.031293264223629
   3   3
     6.411692840163780    -0.062561223878824     0.016495088628837
    -0.041904512593866     6.428785004054468     0.026237402620515
    -0.049839544352547    -0.004985342713757     6.881915604942434
   3   4
     0.010789515943359    -0.001928172850898    -0.004575970223038
    -0.002546328122850    -0.029147037639825     0.003398784840843
     0.002303696879493    -0.002002671996400    -0.021218909059315
   3   5
    -0.104873334694541    -0.021334070794878     0.011111597124825
     0.050011995091753     0.045869505866315    -0.017701176908871
     0.064428089620028     0.032809195549066     0.006639295083772
   3   6
    -0.837273531408512     0.886261232932526    -0.010838872946433
     0.885902607764727    -0.790451032707657     0.008442151694633
    -0.003698221152577     0.003122562543029     0.045404174307757
   3   7
     0.059758076138186     0.005969835223684     0.002399984964115
    -0.038290590221414     0.063165055654043    -0.006415348113140
    -0.050430846757522    -0.003741391075509    -0.104735550565707
   3   8
     0.010438899409092     0.006670841068771     0.006675833639229
     0.003153245342243    -0.000327396024056    -0.007216496030335
     0.000429118718187     0.000278869301785    -0.031923390436311
   3   9
     0.010678324438607     0.050917335450308    -0.006564597844312
     0.033226955771697    -0.088485152041383     0.008417387883184
    -0.006030140484554    -0.016093064086092     0.043909750273142
   3  10
     0.010789515943359    -0.001928172850898    -0.004575970223038
    -0.002546328122850    -0.029147037639825     0.003398784840843
     0.002303696879493    -0.002002671996400    -0.021218909059315
   3  11
     0.038648575776871    -0.029926536712350    -0.011064021247370
    -0.047476686268462    -0.018156119647250     0.011149555895618
    -0.010217750843207    -0.013268559528645     0.034733905414658
   3  12
     0.010678324438607     0.050917335450308    -0.006564597844312
     0.033226955771697    -0.088485152041383     0.008417387883184
    -0.006030140484554    -0.016093064086092     0.043909750273142
   3  13
     0.010438899409092     0.006670841068771     0.006675833639229
     0.003153245342243    -0.000327396024056    -0.007216496030335
     0.000429118718187     0.000278869301785    -0.031923390436311
   3  14
    -0.837273531408512     0.886261232932526    -0.010838872946433
     0.885902607764727    -0.790451032707657     0.008442151694633
    -0.003698221152577     0.003122562543029     0.045404174307757
   3  15
    -0.104873334694541    -0.021334070794878     0.011111597124825
     0.050011995091753     0.045869505866315    -0.017701176908871
     0.064428089620028     0.032809195549066     0.006639295083772
   3  16
    -0.820626002884908    -0.874358659062871     0.007001851839170
    -0.877599309327258    -0.816391888823214    -0.008950366374020
     0.000965828873504    -0.001508891748929     0.031293264223629
   3  17
     0.019268594723809    -0.013816972816661     0.010554279916602
    -0.042728653271711    -0.017598951497915     0.023283521804643
    -0.041859327341672     0.016378272703678    -0.004330558400984
   3  18
     0.097359444969962    -0.000650492670119     0.001600395318272
    -0.002292649161908    -0.842371082639718     0.977877498699625
     0.003538027698497     0.959611194823927    -0.867291365995996
   3  19
    -0.848612896178533     0.006305581024807    -0.982588109235915
    -0.001408082737605     0.095678679979088    -0.001404132875133
    -0.951238645384972    -0.009594922365054    -0.862705770686181
   3  20
    -0.016322388774624     0.004513754199219     0.027846512525128
     0.002051083656761    -0.011775959868691    -0.002053766564853
     0.022650408988973    -0.009664183873136    -0.006861058934115
   3  21
    -0.848171530725512     0.004143996804458     0.970399222775458
    -0.007306811053189     0.092738423952063     0.014581344043748
     0.943167465522309    -0.003187890211160    -0.864849948715331
   3  22
     0.094659896938149    -0.003293683431829    -0.001091450764592
    -0.002764933723503    -0.843250177446145    -0.977443195217340
    -0.004602152098031    -0.945577967264441    -0.868056250218623
   3  23
    -0.848171530725512     0.004143996804458     0.970399222775458
    -0.007306811053189     0.092738423952063     0.014581344043748
     0.943167465522309    -0.003187890211160    -0.864849948715331
   3  24
    -0.016322388774624     0.004513754199219     0.027846512525128
     0.002051083656761    -0.011775959868691    -0.002053766564853
     0.022650408988973    -0.009664183873136    -0.006861058934115
   3  25
    -0.028427781362584     0.008179580884785     0.010536791412204
     0.048083950939776    -0.008346353399540    -0.016612295556525
     0.043487165575894     0.012610081477035    -0.016216264920303
   3  26
     0.097359444969962    -0.000650492670119     0.001600395318272
    -0.002292649161908    -0.842371082639718     0.977877498699625
     0.003538027698497     0.959611194823927    -0.867291365995996
   3  27
    -0.028427781362584     0.008179580884785     0.010536791412204
     0.048083950939776    -0.008346353399540    -0.016612295556525
     0.043487165575894     0.012610081477035    -0.016216264920303
   3  28
     0.018386613321487    -0.010497853792910    -0.008622332819469
    -0.040504875494945    -0.020464806374428    -0.031860207171373
    -0.029755478393724    -0.022498750748999    -0.004625711901404
   3  29
     0.094659896938149    -0.003293683431829    -0.001091450764592
    -0.002764933723503    -0.843250177446145    -0.977443195217340
    -0.004602152098031    -0.945577967264441    -0.868056250218623
   3  30
    -0.012818880807873     0.004951840522349    -0.028863812895314
     0.000682199528348    -0.012527840478477     0.001890344150113
    -0.019239793942176    -0.000110146617643    -0.006969322081642
   3  31
    -0.848612896178533     0.006305581024807    -0.982588109235915
    -0.001408082737605     0.095678679979088    -0.001404132875133
    -0.951238645384972    -0.009594922365054    -0.862705770686181
   3  32
    -0.012818880807873     0.004951840522349    -0.028863812895314
     0.000682199528348    -0.012527840478477     0.001890344150113
    -0.019239793942176    -0.000110146617643    -0.006969322081642
   4   1
    -0.837273531408512     0.886261232932526    -0.010838872946433
     0.885902607764727    -0.790451032707657     0.008442151694633
    -0.003698221152577     0.003122562543029     0.045404174307757
   4   2
    -0.104873334694541    -0.021334070794878     0.011111597124825
     0.050011995091753     0.045869505866315    -0.017701176908871
     0.064428089620028     0.032809195549066     0.006639295083772
   4   3
     0.010789515943359    -0.001928172850898    -0.004575970223038
    -0.002546328122850    -0.029147037639825     0.003398784840843
     0.002303696879493    -0.002002671996400    -0.021218909059315
   4   4
     6.411692840163780    -0.062561223878824     0.016495088628837
    -0.041904512593866     6.428785004054468     0.026237402620515
    -0.049839544352547    -0.004985342713757     6.881915604942434
   4   5
    -0.820626002884908    -0.874358659062871     0.007001851839170
    -0.877599309327258    -0.816391888823214    -0.008950366374020
     0.000965828873504    -0.001508891748929     0.031293264223629
   4   6
     0.038648575776871    -0.029926536712350    -0.011064021247370
    -0.047476686268462    -0.018156119647250     0.011149555895618
    -0.010217750843207    -0.013268559528645     0.034733905414658
   4   7
    -0.837273531408512     0.886261232932526    -0.010838872946433
     0.885902607764727    -0.790451032707657     0.008442151694633
    -0.003698221152577     0.003122562543029     0.045404174307757
   4   8
     0.010678324438607     0.050917335450308    -0.006564597844312
     0.033226955771697    -0.088485152041383     0.008417387883184
    -0.006030140484554    -0.016093064086092     0.043909750273142
   4   9
     0.010438899409092     0.006670841068771     0.006675833639229
     0.003153245342243    -0.000327396024056    -0.007216496030335
     0.000429118718187     0.000278869301785    -0.031923390436311
   4  10
     0.010678324438607     0.050917335450308    -0.006564597844312
     0.033226955771697    -0.088485152041383     0.008417387883184
    -0.006030140484554    -0.016093064086092     0.043909750273142
   4  11
    -0.820626002884908    -0.874358659062871     0.007001851839170
    -0.877599309327258    -0.816391888823214    -0.008950366374020
     0.000965828873504    -0.001508891748929     0.031293264223629
   4  12
     0.010789515943359    -0.001928172850898    -0.004575970223038
    -0.002546328122850    -0.029147037639825     0.003398784840843
     0.002303696879493    -0.002002671996400    -0.021218909059315
   4  13
    -0.104873334694541    -0.021334070794878     0.011111597124825
     0.050011995091753     0.045869505866315    -0.017701176908871
     0.064428089620028     0.032809195549066     0.006639295083772
   4  14
     0.059758076138186     0.005969835223684     0.002399984964115
    -0.038290590221414     0.063165055654043    -0.006415348113140
    -0.050430846757522    -0.003741391075509    -0.104735550565707
   4  15
     0.010438899409092     0.006670841068771     0.006675833639229
     0.003153245342243    -0.000327396024056    -0.007216496030335
     0.000429118718187     0.000278869301785    -0.031923390436311
   4  16
     0.038648575776871    -0.029926536712350    -0.011064021247370
    -0.047476686268462    -0.018156119647250     0.011149555895618
    -0.010217750843207    -0.013268559528645     0.034733905414658
   4  17
    -0.012818880807873     0.004951840522349    -0.028863812895314
     0.000682199528348    -0.012527840478477     0.001890344150113
    -0.019239793942176    -0.000110146617643    -0.006969322081642
   4  18
    -0.848612896178533     0.006305581024807    -0.982588109235915
    -0.001408082737605     0.095678679979088    -0.001404132875133
    -0.951238645384972    -0.009594922365054    -0.862705770686181
   4  19
     0.097359444969962    -0.000650492670119     0.001600395318272
    -0.002292649161908    -0.842371082639718     0.977877498699625
     0.003538027698497     0.959611194823927    -0.867291365995996
   4  20
    -0.848612896178533     0.006305581024807    -0.982588109235915
    -0.001408082737605     0.095678679979088    -0.001404132875133
    -0.951238645384972    -0.009594922365054    -0.862705770686181
   4  21
    -0.012818880807873     0.004951840522349    -0.028863812895314
     0.000682199528348    -0.012527840478477     0.001890344150113
    -0.019239793942176    -0.000110146617643    -0.006969322081642
   4  22
    -0.028427781362584     0.008179580884785     0.010536791412204
     0.048083950939776    -0.008346353399540    -0.016612295556525
     0.043487165575894     0.012610081477035    -0.016216264920303
   4  23
     0.094659896938149    -0.003293683431829    -0.001091450764592
    -0.002764933723503    -0.843250177446145    -0.977443195217340
    -0.004602152098031    -0.945577967264441    -0.868056250218623
   4  24
     0.018386613321487    -0.010497853792910    -0.008622332819469
    -0.040504875494945    -0.020464806374428    -0.031860207171373
    -0.029755478393724    -0.022498750748999    -0.004625711901404
   4  25
     0.094659896938149    -0.003293683431829    -0.001091450764592
    -0.002764933723503    -0.843250177446145    -0.977443195217340
    -0.004602152098031    -0.945577967264441    -0.868056250218623
   4  26
    -0.028427781362584     0.008179580884785     0.010536791412204
     0.048083950939776    -0.008346353399540    -0.016612295556525
     0.043487165575894     0.012610081477035    -0.016216264920303
   4  27
     0.097359444969962    -0.000650492670119     0.001600395318272
    -0.002292649161908    -0.842371082639718     0.977877498699625
     0.003538027698497     0.959611194823927    -0.867291365995996
   4  28
    -0.016322388774624     0.004513754199219     0.027846512525128
     0.002051083656761    -0.011775959868691    -0.002053766564853
     0.022650408988973    -0.009664183873136    -0.006861058934115
   4  29
    -0.848171530725512     0.004143996804458     0.970399222775458
    -0.007306811053189     0.092738423952063     0.014581344043748
     0.943167465522309    -0.003187890211160    -0.864849948715331
   4  30
    -0.848171530725512     0.004143996804458     0.970399222775458
    -0.007306811053189     0.092738423952063     0.014581344043748
     0.943167465522309    -0.003187890211160    -0.864849948715331
   4  31
    -0.016322388774624     0.004513754199219     0.027846512525128
     0.002051083656761    -0.011775959868691    -0.002053766564853
     0.022650408988973    -0.009664183873136    -0.006861058934115
   4  32
     0.019268594723809    -0.013816972816661     0.010554279916602
    -0.042728653271711    -0.017598951497915     0.023283521804643
    -0.041859327341672     0.016378272703678    -0.004330558400984
   5   1
     0.010678324438607     0.050917335450308    -0.006564597844312
     0.033226955771697    -0.088485152041383     0.008417387883184
    -0.006030140484554    -0.016093064086092     0.043909750273142
   5   2
    -0.837273531408512     0.886261232932526    -0.010838872946433
     0.885902607764727    -0.790451032707657     0.008442151694633
    -0.003698221152577     0.003122562543029     0.045404174307757
   5   3
    -0.104873334694541    -0.021334070794878     0.011111597124825
     0.050011995091753     0.045869505866315    -0.017701176908871
     0.064428089620028     0.032809195549066     0.006639295083772
   5   4
    -0.820626002884908    -0.874358659062871     0.007001851839170
    -0.877599309327258    -0.816391888823214    -0.008950366374020
     0.000965828873504    -0.001508891748929     0.031293264223629
   5   5
     6.411692840163780    -0.062561223878824     0.016495088628837
    -0.041904512593866     6.428785004054468     0.026237402620515
    -0.049839544352547    -0.004985342713757     6.881915604942434
   5   6
    -0.820626002884908    -0.874358659062871     0.007001851839170
    -0.877599309327258    -0.816391888823214    -0.008950366374020
     0.000965828873504    -0.001508891748929     0.031293264223629
   5   7
    -0.104873334694541    -0.021334070794878     0.011111597124825
     0.050011995091753     0.045869505866315    -0.017701176908871
     0.064428089620028     0.032809195549066     0.006639295083772
   5   8
    -0.837273531408512     0.886261232932526    -0.010838872946433
     0.885902607764727    -0.790451032707657     0.008442151694633
    -0.003698221152577     0.003122562543029     0.045404174307757
   5   9
     0.010678324438607     0.050917335450308    -0.006564597844312
     0.033226955771697    -0.088485152041383     0.008417387883184
    -0.006030140484554    -0.016093064086092     0.043909750273142
   5  10
     0.010438899409092     0.006670841068771     0.006675833639229
     0.003153245342243    -0.000327396024056    -0.007216496030335
     0.000429118718187     0.000278869301785    -0.031923390436311
   5  11
     0.038648575776871    -0.029926536712350    -0.011064021247370
    -0.047476686268462    -0.018156119647250     0.011149555895618
    -0.010217750843207    -0.013268559528645     0.034733905414658
   5  12
     0.038648575776871    -0.029926536712350    -0.011064021247370
    -0.047476686268462    -0.018156119647250     0.011149555895618
    -0.010217750843207    -0.013268559528645     0.034733905414658
   5  13
     0.010789515943359    -0.001928172850898    -0.004575970223038
    -0.002546328122850    -0.029147037639825     0.003398784840843
     0.002303696879493    -0.002002671996400    -0.021218909059315
   5  14
     0.010438899409092     0.006670841068771     0.006675833639229
     0.003153245342243    -0.000327396024056    -0.007216496030335
     0.000429118718187     0.000278869301785    -0.031923390436311
   5  15
     0.059758076138186     0.005969835223684     0.002399984964115
    -0.038290590221414     0.063165055654043    -0.006415348113140