32
Lattice="0.0008116750649924 0.0008746983003526 8.130922231667572 -4.013321572044539 8.030474032117388 0.0003852554347808 -8.03141105772321 -0.002138855823439 4.064645264726109" Properties=Z:I:1:pos:R:3:vasp_force:R:3 uuid=21f58839-a99a-4fa5-b832-7ef78ff0cd96 vasp_virial="0.10619925207319406 0.019259847712525063 0.006125305978265238 0.019259847712525063 -0.24557533513716304 -0.22651846389211655 0.006125305978265238 -0.22651846389211655 0.09422691430594873" vasp_energy=-128.27570113 pbc="T T T"
      47      -2.00649483       2.00817226       8.14091656       0.00049200       0.00004300      -0.06881900 
      47      -8.03011762       4.01374221       4.06504186      -0.00000900       0.00000400      -0.00023300 
      47      -6.02151668       6.02232680       4.06544411       0.00067200       0.00031900      -0.00040500 
      47      -4.01380333       4.01546766       8.13091090       0.00003700      -0.00005000      -0.00053400 
      47     -10.03742512       6.02103869       4.06503619      -0.00050500      -0.00003000      -0.00038100 
      47      -8.02882418       8.02962328       4.06543845      -0.00001900      -0.00000400       0.00023900 
      47      -6.02111084       6.02276415       8.13090523       0.00062500       0.00035200      -0.00049700 
      47     -12.04473263       8.02833518       4.06503052       0.00003600      -0.00001200      -0.00037400 
      47      -6.02281011       2.00644573       4.06504752      -0.00064900      -0.00032700      -0.00006600 
      47      -8.02841834       8.03006063       8.13089956      -0.00000700       0.00002900      -0.00039300 
      47      -6.02240428       2.00688308       8.13050864      -0.00064000      -0.00032900      -0.00006700 
      47      -2.00690167       2.00773383       4.06545545       0.00050400       0.00003700       0.00104700 
      47      -8.02971178       4.01417956       8.13050297       0.00001000      -0.00000200       0.00039900 
      47      -4.01420917       4.01503031       4.06544978      -0.00003600       0.00002400       0.00013200 
      47     -10.03701929       6.02147604       8.13049730      -0.00046800      -0.00005400      -0.00029000 
      47     -12.04432679       8.02877252       8.13049164      -0.00001000       0.00001700       0.00029200 
      46      -8.03056142       2.00602035       6.09757412       0.01008500       0.00017800       0.00869200 
      46      -6.02196048       4.01460494       6.09797638       0.00019800      -0.00004800       0.00008000 
      46      -4.01335954       6.02318952       6.09837863      -0.00043500      -0.00012600       0.00016100 
      46      -2.00645787       4.01545569       2.03292319       0.00004100       0.00968500       0.00880300 
      46      -8.02926798       6.02190142       6.09797071       0.00029800       0.00022500       0.00004600 
      46      -2.00734547       0.00001197       6.09798771       0.00005100       0.00922800       0.00856000 
      46      -4.01376537       6.02275217       2.03291752      -0.00043500      -0.00012600       0.00016300 
      46      -6.02325392      -0.00127613       6.09757979       0.00018700       0.00005100       0.00005900 
      46      -4.01465297       2.00730846       6.09798204       0.00894200       0.00001400       0.00856400 
      46      -2.00775131      -0.00042538       2.03252660      -0.00003000      -0.00982500       0.00881300 
      46      -4.01505881       2.00687111       2.03252093      -0.01000300      -0.00005000       0.00884700 
      46      -8.03015558       2.00645770      10.16303523      -0.00885900       0.00011300       0.00844800 
      46      -6.02155464       4.01504229      10.16343749      -0.00022100       0.00004700       0.00007800 
      46      -2.00605203       4.01589304       6.09838430      -0.00004100      -0.00936600       0.00853100 
      46      -8.02886215       6.02233877      10.16343182       0.00041900      -0.00016400       0.00004300 
      46      -6.02284808      -0.00083878      10.16304090      -0.00023200       0.00014600       0.00005900 
32
Lattice="0.0008116750649924 0.0008746983003526 8.130922231667572 -4.013321572044539 8.030474032117388 0.0003852554347808 -8.03141105772321 -0.002138855823439 4.064645264726109" Properties=Z:I:1:pos:R:3:vasp_force:R:3 uuid=189636e7-3b14-4b7b-a4de-e2aa25efd771 vasp_virial="0.10709627710688974 0.018559251518324764 0.005863400858938023 0.018559251518324764 -0.24599438332808654 -0.22559197453249655 0.005863400858938023 -0.22559197453249655 0.09424983100388985" vasp_energy=-128.27571499 pbc="T T T"
      47      -2.01096626       2.01711631       8.13091699       0.02903800      -0.05778600      -0.00016400 
      47      -8.03011762       4.01374221       4.06504186       0.00422700       0.00339500       0.00019200 
      47      -6.02151668       6.02232680       4.06544411       0.00116200       0.00021700      -0.00020700 
      47      -4.01380333       4.01546766       8.13091090      -0.01198500       0.01130800      -0.00020500 
      47     -10.03742512       6.02103869       4.06503619      -0.00081300       0.00081800      -0.00004700 
      47      -8.02882418       8.02962328       4.06543845       0.00000000       0.00002900       0.00001400 
      47      -6.02111084       6.02276415       8.13090523       0.00031400       0.00122000      -0.00016200 
      47     -12.04473263       8.02833518       4.06503052      -0.01135000       0.01075700      -0.00004300 
      47      -6.02281011       2.00644573       4.06504752      -0.00091900      -0.00050700       0.00020800 
      47      -8.02841834       8.03006063       8.13089956       0.00413700       0.00339300       0.00003100 
      47      -6.02240428       2.00688308       8.13050864      -0.00091400      -0.00050500       0.00020800 
      47      -2.00690167       2.00773383       4.06545545       0.00061000      -0.00053800       0.00006800 
      47      -8.02971178       4.01417956       8.13050297       0.00003700       0.00003700       0.00017500 
      47      -4.01420917       4.01503031       4.06544978       0.00005700       0.00025200      -0.00013100 
      47     -10.03701929       6.02147604       8.13049730       0.00003300      -0.00016000      -0.00009100 
      47     -12.04432679       8.02877252       8.13049164       0.00008500       0.00025200       0.00002900 
      46      -8.03056142       2.00602035       6.09757412      -0.00337400      -0.00072600      -0.00442000 
      46      -6.02196048       4.01460494       6.09797638      -0.00005700       0.00008400      -0.00013600 
      46      -4.01335954       6.02318952       6.09837863      -0.00055700       0.00011100       0.00019400 
      46      -2.00645787       4.01545569       2.03292319       0.00046100       0.00767600       0.00887100 
      46      -8.02926798       6.02190142       6.09797071       0.00044500       0.00013600       0.00024600 
      46      -2.00734547       0.00001197       6.09798771       0.00043400       0.00738200       0.00860600 
      46      -4.01376537       6.02275217       2.03291752      -0.00055700       0.00011100       0.00019700 
      46      -6.02325392      -0.00127613       6.09757979      -0.00007000       0.00018500      -0.00015600 
      46      -4.01465297       2.00730846       6.09798204      -0.00418700      -0.00092900      -0.00433900 
      46      -2.00775131      -0.00042538       2.03252660       0.00044300       0.00738400      -0.00858700 
      46      -4.01505881       2.00687111       2.03252093      -0.00413300      -0.00091200       0.00430200 
      46      -8.03015558       2.00645770      10.16303523      -0.00332000      -0.00071000       0.00411400 
      46      -6.02155464       4.01504229      10.16343749      -0.00008500       0.00007500       0.00015300 
      46      -2.00605203       4.01589304       6.09838430       0.00046900       0.00767900      -0.00889300 
      46      -8.02886215       6.02233877      10.16343182       0.00046800       0.00009600      -0.00016100 
      46      -6.02284808      -0.00083878      10.16304090      -0.00009700       0.00017600       0.00013300 
32
Lattice="0.0008116750649924 0.0008746983003526 8.130922231667572 -4.013321572044539 8.030474032117388 0.0003852554347808 -8.03141105772321 -0.002138855823439 4.064645264726109" Properties=Z:I:1:pos:R:3:vasp_force:R:3 uuid=4d980551-cc91-4aa9-9cd2-909492619c2e vasp_virial="0.10666740747399144 0.018785144683744488 0.005506555133854694 0.018785144683744488 -0.245175929830189 -0.22612888002711734 0.005506555133854694 -0.22612888002711734 0.09493078431414062" vasp_energy=-128.27571448 pbc="T T T"
      47      -2.01541825       2.00816880       8.13543214       0.05743300      -0.00052000      -0.03092900 
      47      -8.03011762       4.01374221       4.06504186      -0.00721500      -0.00766200       0.00001700 
      47      -6.02151668       6.02232680       4.06544411       0.00095800      -0.00001400      -0.00031200 
      47      -4.01380333       4.01546766       8.13091090      -0.00756600       0.00802300      -0.00039800 
      47     -10.03742512       6.02103869       4.06503619      -0.00044500       0.00033300      -0.00019800 
      47      -8.02882418       8.02962328       4.06543845       0.00007500       0.00005700       0.00012300 
      47      -6.02111084       6.02276415       8.13090523       0.00069100       0.00072100      -0.00031600 
      47     -12.04473263       8.02833518       4.06503052      -0.00733700       0.00776000      -0.00020500 
      47      -6.02281011       2.00644573       4.06504752      -0.00123300      -0.00033800       0.00007100 
      47      -8.02841834       8.03006063       8.13089956      -0.00744200      -0.00793100      -0.00017500 
      47      -6.02240428       2.00688308       8.13050864      -0.00122000      -0.00033900       0.00006700 
      47      -2.00690167       2.00773383       4.06545545       0.00076100       0.00007000       0.00049400 
      47      -8.02971178       4.01417956       8.13050297       0.00010800       0.00005900       0.00028400 
      47      -4.01420917       4.01503031       4.06544978       0.00006900      -0.00000800      -0.00002400 
      47     -10.03701929       6.02147604       8.13049730      -0.00017700      -0.00040000      -0.00019900 
      47     -12.04432679       8.02877252       8.13049164       0.00010300      -0.00000900       0.00013400 
      46      -8.03056142       2.00602035       6.09757412      -0.00288500       0.00018000      -0.00490700 
      46      -6.02196048       4.01460494       6.09797638      -0.00002100      -0.00000500      -0.00021600 
      46      -4.01335954       6.02318952       6.09837863      -0.00045000       0.00001400       0.00016700 
      46      -2.00645787       4.01545569       2.03292319       0.00087800       0.00431500       0.00391500 
      46      -8.02926798       6.02190142       6.09797071       0.00029800       0.00000800      -0.00005600 
      46      -2.00734547       0.00001197       6.09798771       0.00085300       0.00416200       0.00390000 
      46      -4.01376537       6.02275217       2.03291752      -0.00045000       0.00001800       0.00016700 
      46      -6.02325392      -0.00127613       6.09757979      -0.00003400       0.00009400      -0.00023600 
      46      -4.01465297       2.00730846       6.09798204      -0.00366800       0.00001900      -0.00483600 
      46      -2.00775131      -0.00042538       2.03252660       0.00087600      -0.00441900       0.00396100 
      46      -4.01505881       2.00687111       2.03252093      -0.01249200      -0.00003000       0.01294000 
      46      -8.03015558       2.00645770      10.16303523      -0.01116100       0.00013300       0.01218700 
      46      -6.02155464       4.01504229      10.16343749      -0.00024100       0.00003500       0.00028900 
      46      -2.00605203       4.01589304       6.09838430       0.00082900      -0.00426300       0.00390500 
      46      -8.02886215       6.02233877      10.16343182       0.00036100      -0.00019700       0.00011400 
      46      -6.02284808      -0.00083878      10.16304090      -0.00025500       0.00013200       0.00026900 
32
Lattice="0.0008116750649924 0.0008746983003526 8.130922231667572 -4.013321572044539 8.030474032117388 0.0003852554347808 -8.03141105772321 -0.002138855823439 4.064645264726109" Properties=Z:I:1:pos:R:3:vasp_force:R:3 uuid=26bcff64-3fcb-41fb-8d34-b987be909db7 vasp_virial="0.1070438960830243 0.019141990408827816 0.006347925329693371 0.019141990408827816 -0.24537235866968443 -0.2259750107695126 0.006347925329693371 -0.2259750107695126 0.09493405812813221" vasp_energy=-128.27570953 pbc="T T T"
      47      -2.00649583       2.00817118       8.13091656       0.01008500       0.00011400       0.00865700 
      47      -8.03011762       4.01374221       4.06504186       0.00002900      -0.00962000       0.00868300 
      47      -6.02151668       6.02232680       4.06544411       0.00056100       0.00007000      -0.00018400 
      47      -4.01380333       4.01546766       8.13091090       0.00025500      -0.00002900      -0.00009000 
      47     -10.03742512       6.02103869       4.06503619      -0.00049000      -0.00002300      -0.00008100 
      47      -8.02882418       8.02962328       4.06543845      -0.00028000       0.00001200       0.00006900 
      47      -6.02111084       6.02276415       8.13090523       0.00075500       0.00062400      -0.00017900 
      47     -12.04473263       8.02833518       4.06503052       0.00002100       0.00956900       0.00853100 
      47      -6.02281011       2.00644573       4.06504752      -0.01021700      -0.00042600       0.00879100 
      47      -8.02841834       8.03006063       8.13089956       0.00028900      -0.00003100       0.00007000 
      47      -6.02240428       2.00688308       8.13050864       0.00931100      -0.00027000       0.00903300 
      47      -2.00690167       2.00773383       4.06545545      -0.00944600      -0.00004200       0.00893900 
      47      -8.02971178       4.01417956       8.13050297       0.00005600       0.00993300       0.00895500 
      47      -4.01420917       4.01503031       4.06544978      -0.00031300       0.00001400      -0.00009100 
      47     -10.03701929       6.02147604       8.13049730      -0.00049000      -0.00002300      -0.00008400 
      47     -12.04432679       8.02877252       8.13049164      -0.00000500      -0.00998500       0.00878500 
      46      -8.03056042       2.00602143       6.10757412       0.00013100       0.00026000      -0.06675300 
      46      -6.02196048       4.01460494       6.09797638      -0.00000400      -0.00002200      -0.00143900 
      46      -4.01335954       6.02318952       6.09837863      -0.00041300      -0.00016500       0.00054500 
      46      -2.00645787       4.01545569       2.03292319       0.00003300      -0.00001300      -0.00139600 
      46      -8.02926798       6.02190142       6.09797071       0.00034800       0.00003800      -0.00017400 
      46      -2.00734547       0.00001197       6.09798771       0.00002500      -0.00009700       0.00025300 
      46      -4.01376537       6.02275217       2.03291752      -0.00043400      -0.00011900      -0.00004100 
      46      -6.02325392      -0.00127613       6.09757979      -0.00001500       0.00012300      -0.00141600 
      46      -4.01465297       2.00730846       6.09798204      -0.00034400      -0.00001700       0.00013000 
      46      -2.00775131      -0.00042538       2.03252660       0.00004400      -0.00008300      -0.00141900 
      46      -4.01505881       2.00687111       2.03252093      -0.00033700      -0.00001700       0.00013000 
      46      -8.03015558       2.00645770      10.16303523       0.00046100       0.00012800       0.00074000 
      46      -6.02155464       4.01504229      10.16343749       0.00001400       0.00000100       0.00023300 
      46      -2.00605203       4.01589304       6.09838430       0.00000600      -0.00000100       0.00020500 
      46      -8.02886215       6.02233877      10.16343182       0.00036800       0.00000000       0.00041000 
      46      -6.02284808      -0.00083878      10.16304090      -0.00000500       0.00009600       0.00018500 
32
Lattice="0.0008116750649924 0.0008746983003526 8.130922231667572 -4.013321572044539 8.030474032117388 0.0003852554347808 -8.03141105772321 -0.002138855823439 4.064645264726109" Properties=Z:I:1:pos:R:3:vasp_force:R:3 uuid=c2639554-24cf-4a04-bf73-5f617c2595fd vasp_virial="0.10728943213239357 0.018542882448366816 0.006177687002130681 0.018542882448366816 -0.24525122755199555 -0.22615179672505845 0.006177687002130681 -0.22615179672505845 0.09442006933145256" vasp_energy=-128.27569139 pbc="T T T"
      47      -2.00649583       2.00817118       8.13091656      -0.00331900      -0.00087800      -0.00416000 
      47      -8.03011762       4.01374221       4.06504186       0.00049100       0.00765600      -0.00850700 
      47      -6.02151668       6.02232680       4.06544411       0.00079300       0.00041500      -0.00038700 
      47      -4.01380333       4.01546766       8.13091090      -0.00008200       0.00006800      -0.00030100 
      47     -10.03742512       6.02103869       4.06503619      -0.00062800       0.00018900      -0.00006100 
      47      -8.02882418       8.02962328       4.06543845      -0.00006000       0.00007000       0.00013600 
      47      -6.02111084       6.02276415       8.13090523       0.00075800       0.00045000       0.00001400 
      47     -12.04473263       8.02833518       4.06503052       0.00042900       0.00746800       0.00833500 
      47      -6.02281011       2.00644573       4.06504752      -0.00441500      -0.00122200       0.00436500 
      47      -8.02841834       8.03006063       8.13089956      -0.00005000       0.00007000      -0.00014100 
      47      -6.02240428       2.00688308       8.13050864      -0.00443700      -0.00122300      -0.00400100 
      47      -2.00690167       2.00773383       4.06545545      -0.00329700      -0.00087700       0.00429200 
      47      -8.02971178       4.01417956       8.13050297       0.00050000       0.00766000       0.00877500 
      47      -4.01420917       4.01503031       4.06544978      -0.00009200       0.00006800      -0.00002400 
      47     -10.03701929       6.02147604       8.13049730      -0.00062800       0.00018900      -0.00006100 
      47     -12.04432679       8.02877252       8.13049164       0.00042000       0.00746400      -0.00838600 
      46      -8.03503185       2.01496548       6.09757455       0.03139400      -0.06217600      -0.00000500 
      46      -6.02196048       4.01460494       6.09797638       0.00541500       0.00357800      -0.00000800 
      46      -4.01335954       6.02318952       6.09837863      -0.00031500       0.00032300       0.00014000 
      46      -2.00645787       4.01545569       2.03292319      -0.01412100       0.01351400       0.00000100 
      46      -8.02926798       6.02190142       6.09797071       0.00033100       0.00064300       0.00005300 
      46      -2.00734547       0.00001197       6.09798771       0.00007100      -0.00011900       0.00001700 
      46      -4.01376537       6.02275217       2.03291752      -0.00045700       0.00048300       0.00018700 
      46      -6.02325392      -0.00127613       6.09757979      -0.01350100       0.01304600      -0.00001900 
      46      -4.01465297       2.00730846       6.09798204      -0.00080900      -0.00031900      -0.00003000 
      46      -2.00775131      -0.00042538       2.03252660       0.00536300       0.00348000       0.00001200 
      46      -4.01505881       2.00687111       2.03252093      -0.00080800      -0.00032100      -0.00002900 
      46      -8.03015558       2.00645770      10.16303523       0.00064700      -0.00030900      -0.00018800 
      46      -6.02155464       4.01504229      10.16343749       0.00006100      -0.00002100      -0.00000300 
      46      -2.00605203       4.01589304       6.09838430      -0.00005300       0.00002300      -0.00000200 
      46      -8.02886215       6.02233877      10.16343182       0.00046400       0.00048700       0.00000600 
      46      -6.02284808      -0.00083878      10.16304090      -0.00006500       0.00012300      -0.00002200 
32
Lattice="0.0008116750649924 0.0008746983003526 8.130922231667572 -4.013321572044539 8.030474032117388 0.0003852554347808 -8.03141105772321 -0.002138855823439 4.064645264726109" Properties=Z:I:1:pos:R:3:vasp_force:R:3 uuid=9cfe8367-f77f-448d-b1c5-f72ac5784568 vasp_virial="0.10733199171428424 0.0192140143166428 0.0054116145280985765 0.0192140143166428 -0.24574884727871732 -0.22601757035140324 0.0054116145280985765 -0.22601757035140324 0.09436114067960392" vasp_energy=-128.27569404 pbc="T T T"
      46      -2.00649583       2.00817118       8.13091656      -0.00269700       0.00010900      -0.00448000 
      46      -8.03011762       4.01374221       4.06504186       0.00087000      -0.00440500       0.00408900 
      46      -6.02151668       6.02232680       4.06544411       0.00057500       0.00010700      -0.00025100 
      46      -4.01380333       4.01546766       8.13091090      -0.00002200       0.00000300      -0.00031300 
      46     -10.03742512       6.02103869       4.06503619      -0.00051900       0.00010100      -0.00007800 
      46      -8.02882418       8.02962328       4.06543845      -0.00027900       0.00003600       0.00022500 
      46      -6.02111084       6.02276415       8.13090523       0.00065600       0.00037700      -0.00014400 
      46     -12.04473263       8.02833518       4.06503052       0.00082400       0.00437400       0.00385300 
      46      -6.02281011       2.00644573       4.06504752      -0.01237800      -0.00040000       0.01227000 
      46      -8.02841834       8.03006063       8.13089956       0.00001000       0.00000600      -0.00015300 
      46      -6.02240428       2.00688308       8.13050864      -0.00383400      -0.00027600      -0.00430300 
      46      -2.00690167       2.00773383       4.06545545      -0.01178400      -0.00001600       0.01277300 
      46      -8.02971178       4.01417956       8.13050297       0.00089500       0.00441800       0.00403900 
      46      -4.01420917       4.01503031       4.06544978      -0.00031100       0.00003600       0.00006300 
      46     -10.03701929       6.02147604       8.13049730      -0.00051700       0.00010300      -0.00008000 
      46     -12.04432679       8.02877252       8.13049164       0.00087200      -0.00444900       0.00395400 
      47      -8.03948384       2.00601798       6.10208970       0.06282600      -0.00026300      -0.03005900 
      47      -6.02196048       4.01460494       6.09797638      -0.00829000      -0.00940100      -0.00063700 
      47      -4.01335954       6.02318952       6.09837863      -0.00034700      -0.00020200       0.00032300 
      47      -2.00645787       4.01545569       2.03292319      -0.00848800       0.00974200      -0.00066300 
      47      -8.02926798       6.02190142       6.09797071       0.00040200       0.00010200      -0.00005800 
      47      -2.00734547       0.00001197       6.09798771       0.00003800      -0.00012100       0.00011600 
      47      -4.01376537       6.02275217       2.03291752      -0.00038000      -0.00005500       0.00007600 
      47      -6.02325392      -0.00127613       6.09757979      -0.00829800       0.00955400      -0.00064000 
      47      -4.01465297       2.00730846       6.09798204      -0.00131500      -0.00001600       0.00004100 
      47      -2.00775131      -0.00042538       2.03252660      -0.00847800      -0.00978200      -0.00065900 
      47      -4.01505881       2.00687111       2.03252093      -0.00131200      -0.00001600       0.00003300 
      47      -8.03015558       2.00645770      10.16303523       0.00085000       0.00015200       0.00022100 
      47      -6.02155464       4.01504229      10.16343749       0.00002600      -0.00002200       0.00009600 
      47      -2.00605203       4.01589304       6.09838430      -0.00000800       0.00007500       0.00009000 
      47      -8.02886215       6.02233877      10.16343182       0.00043300      -0.00004100       0.00018900 
      47      -6.02284808      -0.00083878      10.16304090      -0.00002000       0.00017200       0.00007000 
