  30
   1   1
     6.435909013429018     0.058367285273078    -0.060697727074623
     0.025763826945428     6.132237141849067     0.040738254869535
    -0.060470294598522     0.043251025262891     6.392616075416936
   1   2
    -0.001626635247366     0.026407462198636     0.019741506987440
     0.013890006896645     0.029613656028188    -0.011937447848207
     0.019239187241235     0.009111792129736    -0.024382922454484
   1   3
    -0.033084146956804     0.025158887935296     0.000219474886878
    -0.001086645533350    -0.021268544864357     0.009297041145252
    -0.016673567511639    -0.024650665149272     0.002738807641704
   1   4
    -0.009399941157126    -0.021496370724525    -0.033356673483594
    -0.020576264179106    -0.007983518538355     0.010998085377749
    -0.033534625694435     0.010980395495340    -0.010318287574916
   1   5
    -0.033090625048511    -0.002127046291379    -0.016737415619149
     0.026296119247960    -0.021517632878821    -0.024648655450260
     0.000207554137842     0.008949447378794     0.002770668598952
   1   6
    -0.001663168777656     0.012779187917349     0.019171499550599
     0.027561367092750     0.029410375963088     0.009086381830203
     0.019642036246620    -0.012157305880917    -0.024244447156980
   1   7
    -0.018337585544778     0.016254073393838     0.003135865070891
     0.017451759314456    -0.045112703461689     0.000468796530808
     0.003193482896895     0.000587306754424    -0.020350569327657
   1   8
     0.007495747997936     0.039071880285685     0.003200104521626
     0.040177091227665    -0.026820295024278     0.025225614207024
     0.003139282771338     0.025430411152120    -0.010407098342122
   1   9
     0.015367784003825     0.003581037904840     0.024710204336978
     0.004807981442265    -0.726706362306243     0.836243551738420
     0.024722865072497     0.835775114191303    -0.786769623907149
   1  10
    -0.004299504939120    -0.018605842481107     0.006751887428534
    -0.017544928695733    -0.708761689295251    -0.846601010895363
     0.006628698550082    -0.846931349226081    -0.784963644851849
   1  11
    -0.009110765088856    -0.000547222251481    -0.012791735296144
     0.000545772048496     0.031897504533471    -0.019162392368409
    -0.012845817083075    -0.019357766801372    -0.017332156446627
   1  12
    -0.727587341241495    -0.781815543371062    -0.016575903348894
    -0.780793664388996    -0.736373107495129    -0.003785609487561
    -0.016551799648277    -0.003638783740415    -0.013764415840533
   1  13
    -0.873089686546509    -0.015506221264673     0.988375793350616
    -0.001750176796170     0.086939935087959    -0.013459868618636
     1.009051146231121    -0.006120042761234    -0.904162125740748
   1  14
    -0.733860572638869     0.798809184273357    -0.000942274802909
     0.794353280627757    -0.709618791078972    -0.006330044487285
    -0.004282232771496    -0.006379494716180     0.085867613196310
   1  15
    -0.022434823123459    -0.044961752096449    -0.008146687743686
    -0.040744775668814    -0.054416187520963     0.047811043628939
    -0.005119250650719     0.045156908083173    -0.034186821590314
   1  16
     0.029429443448798    -0.007880145516237     0.001197119065348
    -0.003260870532517    -0.048388391617645     0.001590357759896
     0.000511618565111    -0.000722596638728     0.011512919977175
   1  17
    -0.008066674790636    -0.017355761151362     0.013106473528749
    -0.013904587546792    -0.036608933383820    -0.041363770881410
     0.016874014830104    -0.040188369312148    -0.034618940541568
   1  18
    -0.868185207758452    -0.020461270625652    -0.963582581797909
    -0.023186193428056     0.085584199844668     0.003317810204850
    -0.984672222784573    -0.004225094785590    -0.867805297366718
   1  19
     0.030032163724512    -0.010281741199808     0.003260229485670
    -0.001496301504200    -0.030385977075940    -0.001881836944844
     0.003021910134351    -0.004549890171864     0.020844597360093
   1  20
     0.011682109995385    -0.018969907494232    -0.009100339183586
    -0.024527751657917    -0.005763154216171     0.017723092728763
    -0.006108586711345     0.007876702830946     0.002530109696280
   1  21
    -0.859304024723067     0.958344175442238    -0.000374190867533
     0.932747214304563    -0.860906416788740    -0.006392697506675
    -0.000022722445116    -0.003419680271568     0.080273046407627
   1  22
    -0.793857068792156    -0.005249954324403     0.871013107506654
     0.009202822558903     0.066614229109751    -0.004487226324088
     0.866521982156426     0.005210346519843    -0.803354852563092
   1  23
    -0.769017453070924    -0.008929138467100    -0.839296423427648
    -0.002217209234869     0.067507907394775     0.005137259370462
    -0.850625358021909    -0.009075606635106    -0.772109289780131
   1  24
    -0.004212454519843    -0.013672076233243     0.006568564076152
    -0.002713977091949    -0.007069338129349    -0.022374050345983
     0.017661115194042    -0.007328250430498    -0.001099108608303
   1  25
     0.082145948074825    -0.008851696618750     0.013192407646300
     0.001396524959774    -0.799601406385944     0.862567282089104
     0.006046676655980     0.901376412690118    -0.795819915201375
   1  26
     0.005570097148663     0.022355025580822     0.001078190163611
     0.014152562552397    -0.005323664120309     0.007481914617234
     0.002246815199931     0.007551632106602     0.007808518944356
   1  27
    -0.010660332350114     0.009421201274693     0.006610711693501
     0.008188748383536    -0.019127897983619    -0.000487546215187
    -0.003090357368833    -0.002972878497957    -0.006901859004321
   1  28
    -0.875853642004712    -0.957561058322669    -0.004717965455405
    -0.975551218899896    -0.886067132923744    -0.004241155167696
    -0.006527828314106     0.001412091245788     0.082156207516762
   1  29
    -0.038003897573681     0.001854539466273    -0.010538166833063
     0.003627318844738     0.013370175863147    -0.008771556614804
    -0.001420711013169    -0.002540167924790     0.009995547441102
   1  30
     0.077111993649642    -0.018127991786852    -0.004473433900310
    -0.010808423883510    -0.785354450482535    -0.861762117526299
     0.003238222537815    -0.908410600588690    -0.786522113086160
   2   1
    -0.001663168777656     0.012779187917349     0.019171499550599
     0.027561367092750     0.029410375963088     0.009086381830203
     0.019642036246620    -0.012157305880917    -0.024244447156980
   2   2
     6.435909013429017     0.058367285273078    -0.060697727074623
     0.025763826945428     6.132237141849065     0.040738254869535
    -0.060470294598522     0.043251025262890     6.392616075416934
   2   3
    -0.001626635247366     0.026407462198636     0.019741506987440
     0.013890006896645     0.029613656028188    -0.011937447848207
     0.019239187241235     0.009111792129736    -0.024382922454484
   2   4
    -0.033084146956804     0.025158887935296     0.000219474886878
    -0.001086645533350    -0.021268544864357     0.009297041145252
    -0.016673567511639    -0.024650665149272     0.002738807641704
   2   5
    -0.009399941157126    -0.021496370724525    -0.033356673483594
    -0.020576264179106    -0.007983518538355     0.010998085377749
    -0.033534625694435     0.010980395495340    -0.010318287574916
   2   6
    -0.033090625048511    -0.002127046291379    -0.016737415619149
     0.026296119247960    -0.021517632878821    -0.024648655450260
     0.000207554137842     0.008949447378794     0.002770668598952
   2   7
    -0.727587341241495    -0.781815543371062    -0.016575903348894
    -0.780793664388996    -0.736373107495129    -0.003785609487561
    -0.016551799648277    -0.003638783740415    -0.013764415840533
   2   8
    -0.018337585544778     0.016254073393838     0.003135865070891
     0.017451759314456    -0.045112703461689     0.000468796530808
     0.003193482896895     0.000587306754424    -0.020350569327657
   2   9
     0.007495747997936     0.039071880285685     0.003200104521626
     0.040177091227665    -0.026820295024278     0.025225614207024
     0.003139282771338     0.025430411152120    -0.010407098342122
   2  10
     0.015367784003825     0.003581037904840     0.024710204336978
     0.004807981442265    -0.726706362306243     0.836243551738420
     0.024722865072497     0.835775114191303    -0.786769623907149
   2  11
    -0.004299504939120    -0.018605842481107     0.006751887428534
    -0.017544928695733    -0.708761689295250    -0.846601010895363
     0.006628698550082    -0.846931349226081    -0.784963644851849
   2  12
    -0.009110765088856    -0.000547222251481    -0.012791735296144
     0.000545772048496     0.031897504533471    -0.019162392368409
    -0.012845817083075    -0.019357766801372    -0.017332156446627
   2  13
    -0.868185207758452    -0.020461270625652    -0.963582581797909
    -0.023186193428056     0.085584199844668     0.003317810204850
    -0.984672222784572    -0.004225094785590    -0.867805297366718
   2  14
    -0.873089686546509    -0.015506221264673     0.988375793350616
    -0.001750176796170     0.086939935087958    -0.013459868618636
     1.009051146231121    -0.006120042761234    -0.904162125740747
   2  15
    -0.733860572638869     0.798809184273357    -0.000942274802909
     0.794353280627756    -0.709618791078972    -0.006330044487285
    -0.004282232771496    -0.006379494716180     0.085867613196310
   2  16
    -0.022434823123459    -0.044961752096449    -0.008146687743686
    -0.040744775668814    -0.054416187520963     0.047811043628939
    -0.005119250650719     0.045156908083173    -0.034186821590314
   2  17
     0.029429443448798    -0.007880145516237     0.001197119065348
    -0.003260870532517    -0.048388391617645     0.001590357759896
     0.000511618565111    -0.000722596638728     0.011512919977175
   2  18
    -0.008066674790636    -0.017355761151362     0.013106473528749
    -0.013904587546792    -0.036608933383820    -0.041363770881410
     0.016874014830104    -0.040188369312148    -0.034618940541568
   2  19
    -0.004212454519843    -0.013672076233243     0.006568564076152
    -0.002713977091949    -0.007069338129349    -0.022374050345983
     0.017661115194042    -0.007328250430498    -0.001099108608303
   2  20
     0.030032163724512    -0.010281741199808     0.003260229485670
    -0.001496301504200    -0.030385977075940    -0.001881836944844
     0.003021910134351    -0.004549890171864     0.020844597360093
   2  21
     0.011682109995385    -0.018969907494232    -0.009100339183586
    -0.024527751657917    -0.005763154216171     0.017723092728763
    -0.006108586711345     0.007876702830946     0.002530109696280
   2  22
    -0.859304024723066     0.958344175442237    -0.000374190867533
     0.932747214304563    -0.860906416788740    -0.006392697506675
    -0.000022722445116    -0.003419680271568     0.080273046407627
   2  23
    -0.793857068792155    -0.005249954324403     0.871013107506654
     0.009202822558903     0.066614229109751    -0.004487226324088
     0.866521982156426     0.005210346519843    -0.803354852563092
   2  24
    -0.769017453070924    -0.008929138467100    -0.839296423427648
    -0.002217209234869     0.067507907394775     0.005137259370462
    -0.850625358021909    -0.009075606635106    -0.772109289780131
   2  25
     0.077111993649642    -0.018127991786852    -0.004473433900310
    -0.010808423883510    -0.785354450482535    -0.861762117526299
     0.003238222537815    -0.908410600588689    -0.786522113086159
   2  26
     0.082145948074825    -0.008851696618750     0.013192407646300
     0.001396524959774    -0.799601406385944     0.862567282089104
     0.006046676655980     0.901376412690118    -0.795819915201374
   2  27
     0.005570097148663     0.022355025580822     0.001078190163611
     0.014152562552397    -0.005323664120309     0.007481914617234
     0.002246815199931     0.007551632106602     0.007808518944356
   2  28
    -0.010660332350114     0.009421201274693     0.006610711693501
     0.008188748383536    -0.019127897983619    -0.000487546215187
    -0.003090357368833    -0.002972878497957    -0.006901859004321
   2  29
    -0.875853642004712    -0.957561058322669    -0.004717965455405
    -0.975551218899896    -0.886067132923744    -0.004241155167696
    -0.006527828314106     0.001412091245788     0.082156207516762
   2  30
    -0.038003897573681     0.001854539466273    -0.010538166833063
     0.003627318844738     0.013370175863147    -0.008771556614804
    -0.001420711013169    -0.002540167924790     0.009995547441102
   3   1
    -0.033090625048511    -0.002127046291379    -0.016737415619149
     0.026296119247960    -0.021517632878821    -0.024648655450260
     0.000207554137842     0.008949447378794     0.002770668598952
   3   2
    -0.001663168777656     0.012779187917349     0.019171499550599
     0.027561367092750     0.029410375963088     0.009086381830203
     0.019642036246620    -0.012157305880917    -0.024244447156980
   3   3
     6.435909013429017     0.058367285273078    -0.060697727074623
     0.025763826945428     6.132237141849065     0.040738254869535
    -0.060470294598522     0.043251025262890     6.392616075416934
   3   4
    -0.001626635247366     0.026407462198636     0.019741506987440
     0.013890006896645     0.029613656028188    -0.011937447848207
     0.019239187241235     0.009111792129736    -0.024382922454484
   3   5
    -0.033084146956804     0.025158887935296     0.000219474886878
    -0.001086645533350    -0.021268544864357     0.009297041145252
    -0.016673567511639    -0.024650665149272     0.002738807641704
   3   6
    -0.009399941157126    -0.021496370724525    -0.033356673483594
    -0.020576264179106    -0.007983518538355     0.010998085377749
    -0.033534625694435     0.010980395495340    -0.010318287574916
   3   7
    -0.009110765088856    -0.000547222251481    -0.012791735296144
     0.000545772048496     0.031897504533471    -0.019162392368409
    -0.012845817083075    -0.019357766801372    -0.017332156446627
   3   8
    -0.727587341241495    -0.781815543371062    -0.016575903348894
    -0.780793664388996    -0.736373107495129    -0.003785609487561
    -0.016551799648277    -0.003638783740415    -0.013764415840533
   3   9
    -0.018337585544778     0.016254073393838     0.003135865070891
     0.017451759314456    -0.045112703461689     0.000468796530808
     0.003193482896895     0.000587306754424    -0.020350569327657
   3  10
     0.007495747997936     0.039071880285685     0.003200104521626
     0.040177091227665    -0.026820295024278     0.025225614207024
     0.003139282771338     0.025430411152120    -0.010407098342122
   3  11
     0.015367784003825     0.003581037904840     0.024710204336978
     0.004807981442265    -0.726706362306243     0.836243551738420
     0.024722865072497     0.835775114191303    -0.786769623907149
   3  12
    -0.004299504939120    -0.018605842481107     0.006751887428534
    -0.017544928695733    -0.708761689295250    -0.846601010895363
     0.006628698550082    -0.846931349226081    -0.784963644851849
   3  13
    -0.008066674790636    -0.017355761151362     0.013106473528749
    -0.013904587546792    -0.036608933383820    -0.041363770881410
     0.016874014830104    -0.040188369312148    -0.034618940541568
   3  14
    -0.868185207758452    -0.020461270625652    -0.963582581797909
    -0.023186193428056     0.085584199844668     0.003317810204850
    -0.984672222784572    -0.004225094785590    -0.867805297366718
   3  15
    -0.873089686546509    -0.015506221264673     0.988375793350616
    -0.001750176796170     0.086939935087958    -0.013459868618636
     1.009051146231121    -0.006120042761234    -0.904162125740747
   3  16
    -0.733860572638869     0.798809184273357    -0.000942274802909
     0.794353280627756    -0.709618791078972    -0.006330044487285
    -0.004282232771496    -0.006379494716180     0.085867613196310
   3  17
    -0.022434823123459    -0.044961752096449    -0.008146687743686
    -0.040744775668814    -0.054416187520963     0.047811043628939
    -0.005119250650719     0.045156908083173    -0.034186821590314
   3  18
     0.029429443448798    -0.007880145516237     0.001197119065348
    -0.003260870532517    -0.048388391617645     0.001590357759896
     0.000511618565111    -0.000722596638728     0.011512919977175
   3  19
    -0.769017453070924    -0.008929138467100    -0.839296423427648
    -0.002217209234869     0.067507907394775     0.005137259370462
    -0.850625358021909    -0.009075606635106    -0.772109289780131
   3  20
    -0.004212454519843    -0.013672076233243     0.006568564076152
    -0.002713977091949    -0.007069338129349    -0.022374050345983
     0.017661115194042    -0.007328250430498    -0.001099108608303
   3  21
     0.030032163724512    -0.010281741199808     0.003260229485670
    -0.001496301504200    -0.030385977075940    -0.001881836944844
     0.003021910134351    -0.004549890171864     0.020844597360093
   3  22
     0.011682109995385    -0.018969907494232    -0.009100339183586
    -0.024527751657917    -0.005763154216171     0.017723092728763
    -0.006108586711345     0.007876702830946     0.002530109696280
   3  23
    -0.859304024723066     0.958344175442237    -0.000374190867533
     0.932747214304563    -0.860906416788740    -0.006392697506675
    -0.000022722445116    -0.003419680271568     0.080273046407627
   3  24
    -0.793857068792155    -0.005249954324403     0.871013107506654
     0.009202822558903     0.066614229109751    -0.004487226324088
     0.866521982156426     0.005210346519843    -0.803354852563092
   3  25
    -0.038003897573681     0.001854539466273    -0.010538166833063
     0.003627318844738     0.013370175863147    -0.008771556614804
    -0.001420711013169    -0.002540167924790     0.009995547441102
   3  26
     0.077111993649642    -0.018127991786852    -0.004473433900310
    -0.010808423883510    -0.785354450482535    -0.861762117526299
     0.003238222537815    -0.908410600588689    -0.786522113086159
   3  27
     0.082145948074825    -0.008851696618750     0.013192407646300
     0.001396524959774    -0.799601406385944     0.862567282089104
     0.006046676655980     0.901376412690118    -0.795819915201374
   3  28
     0.005570097148663     0.022355025580822     0.001078190163611
     0.014152562552397    -0.005323664120309     0.007481914617234
     0.002246815199931     0.007551632106602     0.007808518944356
   3  29
    -0.010660332350114     0.009421201274693     0.006610711693501
     0.008188748383536    -0.019127897983619    -0.000487546215187
    -0.003090357368833    -0.002972878497957    -0.006901859004321
   3  30
    -0.875853642004712    -0.957561058322669    -0.004717965455405
    -0.975551218899896    -0.886067132923744    -0.004241155167696
    -0.006527828314106     0.001412091245788     0.082156207516762
   4   1
    -0.009399941157126    -0.021496370724525    -0.033356673483594
    -0.020576264179106    -0.007983518538355     0.010998085377749
    -0.033534625694435     0.010980395495340    -0.010318287574916
   4   2
    -0.033090625048511    -0.002127046291379    -0.016737415619149
     0.026296119247960    -0.021517632878821    -0.024648655450260
     0.000207554137842     0.008949447378794     0.002770668598952
   4   3
    -0.001663168777656     0.012779187917349     0.019171499550599
     0.027561367092750     0.029410375963088     0.009086381830203
     0.019642036246620    -0.012157305880917    -0.024244447156980
   4   4
     6.435909013429017     0.058367285273078    -0.060697727074623
     0.025763826945428     6.132237141849065     0.040738254869535
    -0.060470294598522     0.043251025262890     6.392616075416934
   4   5
    -0.001626635247366     0.026407462198636     0.019741506987440
     0.013890006896645     0.029613656028188    -0.011937447848207
     0.019239187241235     0.009111792129736    -0.024382922454484
   4   6
    -0.033084146956804     0.025158887935296     0.000219474886878
    -0.001086645533350    -0.021268544864357     0.009297041145252
    -0.016673567511639    -0.024650665149272     0.002738807641704
   4   7
    -0.004299504939120    -0.018605842481107     0.006751887428534
    -0.017544928695733    -0.708761689295250    -0.846601010895363
     0.006628698550082    -0.846931349226081    -0.784963644851849
   4   8
    -0.009110765088856    -0.000547222251481    -0.012791735296144
     0.000545772048496     0.031897504533471    -0.019162392368409
    -0.012845817083075    -0.019357766801372    -0.017332156446627
   4   9
    -0.727587341241495    -0.781815543371062    -0.016575903348894
    -0.780793664388996    -0.736373107495129    -0.003785609487561
    -0.016551799648277    -0.003638783740415    -0.013764415840533
   4  10
    -0.018337585544778     0.016254073393838     0.003135865070891
     0.017451759314456    -0.045112703461689     0.000468796530808
     0.003193482896895     0.000587306754424    -0.020350569327657
   4  11
     0.007495747997936     0.039071880285685     0.003200104521626
     0.040177091227665    -0.026820295024278     0.025225614207024
     0.003139282771338     0.025430411152120    -0.010407098342122
   4  12
     0.015367784003825     0.003581037904840     0.024710204336978
     0.004807981442265    -0.726706362306243     0.836243551738420
     0.024722865072497     0.835775114191303    -0.786769623907149
   4  13
     0.029429443448798    -0.007880145516237     0.001197119065348
    -0.003260870532517    -0.048388391617645     0.001590357759896
     0.000511618565111    -0.000722596638728     0.011512919977175
   4  14
    -0.008066674790636    -0.017355761151362     0.013106473528749
    -0.013904587546792    -0.036608933383820    -0.041363770881410
     0.016874014830104    -0.040188369312148    -0.034618940541568
   4  15
    -0.868185207758452    -0.020461270625652    -0.963582581797909
    -0.023186193428056     0.085584199844668     0.003317810204850
    -0.984672222784572    -0.004225094785590    -0.867805297366718
   4  16
    -0.873089686546509    -0.015506221264673     0.988375793350616
    -0.001750176796170     0.086939935087958    -0.013459868618636
     1.009051146231121    -0.006120042761234    -0.904162125740747
   4  17
    -0.733860572638869     0.798809184273357    -0.000942274802909
     0.794353280627756    -0.709618791078972    -0.006330044487285
    -0.004282232771496    -0.006379494716180     0.085867613196310
   4  18
    -0.022434823123459    -0.044961752096449    -0.008146687743686
    -0.040744775668814    -0.054416187520963     0.047811043628939
    -0.005119250650719     0.045156908083173    -0.034186821590314
   4  19
    -0.793857068792155    -0.005249954324403     0.871013107506654
     0.009202822558903     0.066614229109751    -0.004487226324088
     0.866521982156426     0.005210346519843    -0.803354852563092
   4  20
    -0.769017453070924    -0.008929138467100    -0.839296423427648
    -0.002217209234869     0.067507907394775     0.005137259370462
    -0.850625358021909    -0.009075606635106    -0.772109289780131
   4  21
    -0.004212454519843    -0.013672076233243     0.006568564076152
    -0.002713977091949    -0.007069338129349    -0.022374050345983
     0.017661115194042    -0.007328250430498    -0.001099108608303
   4  22
     0.030032163724512    -0.010281741199808     0.003260229485670
    -0.001496301504200    -0.030385977075940    -0.001881836944844
     0.003021910134351    -0.004549890171864     0.020844597360093
   4  23
     0.011682109995385    -0.018969907494232    -0.009100339183586
    -0.024527751657917    -0.005763154216171     0.017723092728763
    -0.006108586711345     0.007876702830946     0.002530109696280
   4  24
    -0.859304024723066     0.958344175442237    -0.000374190867533
     0.932747214304563    -0.860906416788740    -0.006392697506675
    -0.000022722445116    -0.003419680271568     0.080273046407627
   4  25
    -0.875853642004712    -0.957561058322669    -0.004717965455405
    -0.975551218899896    -0.886067132923744    -0.004241155167696
    -0.006527828314106     0.001412091245788     0.082156207516762
   4  26
    -0.038003897573681     0.001854539466273    -0.010538166833063
     0.003627318844738     0.013370175863147    -0.008771556614804
    -0.001420711013169    -0.002540167924790     0.009995547441102
   4  27
     0.077111993649642    -0.018127991786852    -0.004473433900310
    -0.010808423883510    -0.785354450482535    -0.861762117526299
     0.003238222537815    -0.908410600588689    -0.786522113086159
   4  28
     0.082145948074825    -0.008851696618750     0.013192407646300
     0.001396524959774    -0.799601406385944     0.862567282089104
     0.006046676655980     0.901376412690118    -0.795819915201374
   4  29
     0.005570097148663     0.022355025580822     0.001078190163611
     0.014152562552397    -0.005323664120309     0.007481914617234
     0.002246815199931     0.007551632106602     0.007808518944356
   4  30
    -0.010660332350114     0.009421201274693     0.006610711693501
     0.008188748383536    -0.019127897983619    -0.000487546215187
    -0.003090357368833    -0.002972878497957    -0.006901859004321
   5   1
    -0.033084146956804     0.025158887935296     0.000219474886878
    -0.001086645533350    -0.021268544864357     0.009297041145252
    -0.016673567511639    -0.024650665149272     0.002738807641704
   5   2
    -0.009399941157126    -0.021496370724525    -0.033356673483594
    -0.020576264179106    -0.007983518538355     0.010998085377749
    -0.033534625694435     0.010980395495340    -0.010318287574916
   5   3
    -0.033090625048511    -0.002127046291379    -0.016737415619149
     0.026296119247960    -0.021517632878821    -0.024648655450260
     0.000207554137842     0.008949447378794     0.002770668598952
   5   4
    -0.001663168777656     0.012779187917349     0.019171499550599
     0.027561367092750     0.029410375963088     0.009086381830203
     0.019642036246620    -0.012157305880917    -0.024244447156980
   5   5
     6.435909013429017     0.058367285273078    -0.060697727074623
     0.025763826945428     6.132237141849065     0.040738254869535
    -0.060470294598522     0.043251025262890     6.392616075416934
   5   6
    -0.001626635247366     0.026407462198636     0.019741506987440
     0.013890006896645     0.029613656028188    -0.011937447848207
     0.019239187241235     0.009111792129736    -0.024382922454484
   5   7
     0.015367784003825     0.003581037904840     0.024710204336978
     0.004807981442265    -0.726706362306243     0.836243551738420
     0.024722865072497     0.835775114191303    -0.786769623907149
   5   8
    -0.004299504939120    -0.018605842481107     0.006751887428534
    -0.017544928695733    -0.708761689295250    -0.846601010895363
     0.006628698550082    -0.846931349226081    -0.784963644851849
   5   9
    -0.009110765088856    -0.000547222251481    -0.012791735296144
     0.000545772048496     0.031897504533471    -0.019162392368409
    -0.012845817083075    -0.019357766801372    -0.017332156446627
   5  10
    -0.727587341241495    -0.781815543371062    -0.016575903348894
    -0.780793664388996    -0.736373107495129    -0.003785609487561
    -0.016551799648277    -0.003638783740415    -0.013764415840533
   5  11
    -0.018337585544778     0.016254073393838     0.003135865070891
     0.017451759314456    -0.045112703461689     0.000468796530808
     0.003193482896895     0.000587306754424    -0.020350569327657
   5  12
     0.007495747997936     0.039071880285685     0.003200104521626
     0.040177091227665    -0.026820295024278     0.025225614207024
     0.003139282771338     0.025430411152120    -0.010407098342122
   5  13
    -0.022434823123459    -0.044961752096449    -0.008146687743686
    -0.040744775668814    -0.054416187520963     0.047811043628939
    -0.005119250650719     0.045156908083173    -0.034186821590314
   5  14
     0.029429443448798    -0.007880145516237     0.001197119065348
    -0.003260870532517    -0.048388391617645     0.001590357759896
     0.000511618565111    -0.000722596638728     0.011512919977175
   5  15
    -0.008066674790636    -0.017355761151362     0.013106473528749
    -0.013904587546792    -0.036608933383820    -0.041363770881410
     0.016874014830104    -0.040188369312148    -0.034618940541568
   5  16
    -0.868185207758452    -0.020461270625652    -0.963582581797909
    -0.023186193428056     0.085584199844668     0.003317810204850
    -0.984672222784572    -0.004225094785590    -0.867805297366718
   5  17
    -0.873089686546509    -0.015506221264673     0.988375793350616
    -0.001750176796170     0.086939935087958    -0.013459868618636
     1.009051146231121    -0.006120042761234    -0.904162125740747
   5  18
    -0.733860572638869     0.798809184273357    -0.000942274802909
     0.794353280627756    -0.709618791078972    -0.006330044487285
    -0.004282232771496    -0.006379494716180     0.085867613196310
   5  19
    -0.859304024723066     0.958344175442237    -0.000374190867533
     0.932747214304563    -0.860906416788740    -0.006392697506675
    -0.000022722445116    -0.003419680271568     0.080273046407627
   5  20
    -0.793857068792155    -0.005249954324403     0.871013107506654
     0.009202822558903     0.066614229109751    -0.004487226324088
     0.866521982156426     0.005210346519843    -0.803354852563092
   5  21
    -0.769017453070924    -0.008929138467100    -0.839296423427648
    -0.002217209234869     0.067507907394775     0.005137259370462
    -0.850625358021909    -0.009075606635106    -0.772109289780131
   5  22
    -0.004212454519843    -0.013672076233243     0.006568564076152
    -0.002713977091949    -0.007069338129349    -0.022374050345983
     0.017661115194042    -0.007328250430498    -0.001099108608303
   5  23
     0.030032163724512    -0.010281741199808     0.003260229485670
    -0.001496301504200    -0.030385977075940    -0.001881836944844