30
Lattice="-4.053309746839312 2.0209637622736336 6.0823761966495535 4.051458046155711 8.073078250228154 -4.052567624491645 -6.092694728778664 -2.0166532573608587 -4.064772343690295" Properties=Z:I:1:pos:R:3:vasp_force:R:3 uuid=ff65ea99-6e57-4a0c-9fd4-89f78064e1d6 vasp_virial="-0.10664074314105902 -0.10549507275290262 -0.4179704446530631 -0.10549507275290262 -0.18082912724368752 -0.0017153923474841925 -0.4179704446530631 -0.0017153923474841925 0.505449227905256" vasp_energy=-113.34403586 pbc="T T T"
      47      -0.01430920       4.04442846       0.00825791       0.03105500      -0.01838600      -0.05215600 
      47      -6.09710701       2.02546954      -0.00672422      -0.00399700      -0.00156500      -0.00039700 
      47      -2.03924528       0.00486507      -2.03128964      -0.00375500      -0.00107300      -0.00021700 
      47       2.01676476       8.07830262      -2.02604648      -0.00369700      -0.00139200      -0.00045500 
      47      -4.07137799       6.06200866      -2.03300804      -0.00404800      -0.00158200      -0.00077100 
      47      -0.01351625       4.04140420      -4.05757345      -0.00395600      -0.00137700       0.00010800 
      47      -8.11131116      -0.00091385      -0.00891724       0.00379100       0.00146500       0.00051400 
      47      -4.05530113       8.07252370      -0.00367408       0.00360900       0.00159200       0.00020600 
      47       0.00256060       6.05191924      -2.02823950       0.00364700      -0.00309400       0.00492500 
      47      -6.08558214       4.03562528      -2.03520106       0.00395600       0.01003000       0.00908200 
      47      -6.08103015       4.03598457       2.02260973       0.00375400       0.00158400       0.00029700 
      47      -2.02316842       2.01538011      -0.00195568       0.00211300      -0.00058300       0.00076100 
      47      -2.01043855       4.04201159       2.02723830      -0.01266100      -0.00050100       0.01192200 
      47      -8.09858129       2.02571763       2.02027674      -0.00577700       0.00615600      -0.00070900 
      47      -4.04071955       0.00511316      -0.00428867       0.00035700      -0.00033700      -0.00061600 
      47       0.01529048       8.07855071       0.00095449       0.00056400      -0.00012600      -0.00102900 
      47      -6.07285226       6.06225675      -0.00600707       0.00000200       0.00036700       0.00040200 
      47      -2.01499053       4.04165229      -2.03057248       0.00364200      -0.00017900       0.00109500 
      46      -0.00185172      10.09404198       2.02980855       0.00013500       0.00009100      -0.00014100 
      46      -2.03668472       6.05678426      -4.05952920      -0.00011200      -0.00022200       0.00000100 
      46      -2.03213273       6.05714356      -0.00171842      -0.00689000       0.00767100      -0.00076800 
      46      -2.02758075       6.05750285       4.05609237      -0.01093700      -0.00020300       0.01084600 
      46      -4.06241374       2.02024513      -2.03324539       0.00243300      -0.00023200       0.00179900 
      46      -4.05786176       2.02060443       2.02456539       0.00012000       0.00012700      -0.00000800 
      46      -6.10983691      -0.00116194      -2.03591829      -0.00001500      -0.00492400       0.00512000 
      46      -2.05382688       8.07227561      -2.03067513      -0.00036400       0.00000400       0.00064900 
      46       2.00403486       6.05167115      -4.05524054      -0.00020900       0.00014400       0.00015700 
      46      -4.08410789       4.03537719      -4.06220210      -0.00245200      -0.00249800       0.00028200 
      46      -4.07955590       4.03573649      -0.00439132      -0.00054100      -0.00007300       0.00061100 
      46      -0.02169417       2.01513202      -2.02895673       0.00023100       0.00911400       0.00848900 
30
Lattice="-4.053309746839312 2.0209637622736336 6.0823761966495535 4.051458046155711 8.073078250228154 -4.052567624491645 -6.092694728778664 -2.0166532573608587 -4.064772343690295" Properties=Z:I:1:pos:R:3:vasp_force:R:3 uuid=746a429f-4ff0-470c-9f02-e9f027249c3a vasp_virial="-0.10767745031295056 -0.09894482683800834 -0.41198680746274613 -0.09894482683800834 -0.17692824410140495 0.0007160439925977573 -0.41198680746274613 0.0007160439925977573 0.5029057151141588" vasp_energy=-113.34400557 pbc="T T T"
      47      -0.00896427       4.04176349       0.00023733      -0.00389000      -0.00155600      -0.00022200 
      47      -6.09710701       2.02546954      -0.00672422      -0.01281100      -0.01057200      -0.00074400 
      47      -2.03924528       0.00486507      -2.03128964      -0.00366400      -0.00117100      -0.00029500 
      47       2.01676476       8.07830262      -2.02604648      -0.00412800      -0.00363600      -0.00400200 
      47      -4.07137799       6.06200866      -2.03300804      -0.00375400      -0.01114100       0.00966800 
      47      -0.01351625       4.04140420      -4.05757345      -0.00334100      -0.00167000       0.00010300 
      47      -8.11540350      -0.00906838      -0.00482379       0.03024000       0.05164200      -0.02614400 
      47      -4.05530113       8.07252370      -0.00367408       0.00386300       0.00182600       0.00043500 
      47       0.00256060       6.05191924      -2.02823950       0.00388500       0.00135200       0.00046100 
      47      -6.08558214       4.03562528      -2.03520106       0.00391500       0.00103500       0.00034700 
      47      -6.08103015       4.03598457       2.02260973       0.00364800       0.00151600       0.00025000 
      47      -2.02316842       2.01538011      -0.00195568       0.00383200       0.00188800       0.00083000 
      47      -2.01043855       4.04201159       2.02723830       0.00072800      -0.01028000       0.00917500 
      47      -8.09858129       2.02571763       2.02027674       0.00037400      -0.00276300      -0.00385500 
      47      -4.04071955       0.00511316      -0.00428867       0.00022800       0.00021100      -0.00086400 
      47       0.01529048       8.07855071       0.00095449      -0.01134500      -0.01163700      -0.00134100 
      47      -6.07285226       6.06225675      -0.00600707       0.00020100      -0.00010700       0.00000500 
      47      -2.01499053       4.04165229      -2.03057248       0.00047700       0.00010200      -0.00067400 
      46      -0.00185172      10.09404198       2.02980855      -0.00679800       0.00051700       0.00692700 
      46      -2.03668472       6.05678426      -4.05952920       0.00384700      -0.00319400      -0.00026200 
      46      -2.03213273       6.05714356      -0.00171842       0.00017300      -0.00006700      -0.00000400 
      46      -2.02758075       6.05750285       4.05609237       0.00011600      -0.00028400      -0.00007200 
      46      -4.06241374       2.02024513      -2.03324539      -0.00037700      -0.00019500      -0.00002300 
      46      -4.05786176       2.02060443       2.02456539       0.00063100       0.00064000      -0.00031900 
      46      -6.10983691      -0.00116194      -2.03591829      -0.00800400       0.00087000       0.00849000 
      46      -2.05382688       8.07227561      -2.03067513      -0.00003900       0.00052600       0.00035700 
      46       2.00403486       6.05167115      -4.05524054      -0.00034400      -0.00022600      -0.00006600 
      46      -4.08410789       4.03537719      -4.06220210      -0.00029500      -0.00019000       0.00092700 
      46      -4.07955590       4.03573649      -0.00439132      -0.00071100      -0.00091900       0.00123700 
      46      -0.02169417       2.01513202      -2.02895673       0.00334500      -0.00251700      -0.00032400 
30
Lattice="-4.053309746839312 2.0209637622736336 6.0823761966495535 4.051458046155711 8.073078250228154 -4.052567624491645 -6.092694728778664 -2.0166532573608587 -4.064772343690295" Properties=Z:I:1:pos:R:3:vasp_force:R:3 uuid=23fed40d-86ac-4f02-ade7-ad14e363fb66 vasp_virial="-0.11415609182858505 -0.09552026861254082 -0.41580363326676717 -0.09552026861254082 -0.1803652552658742 -0.001083405693147911 -0.41580363326676717 -0.001083405693147911 0.5002376729330446" vasp_energy=-113.34399196 pbc="T T T"
      47      -0.00896427       4.04176349       0.00023733      -0.00401900      -0.00121500      -0.00041900 
      47      -6.09710701       2.02546954      -0.00672422      -0.01160200      -0.00963300      -0.00096700 
      47      -2.03924528       0.00486507      -2.03128964      -0.00381600      -0.00150500      -0.00041900 
      47       2.01676476       8.07830262      -2.02604648      -0.00396100      -0.00788700      -0.00681700 
      47      -4.07137799       6.06200866      -2.03300804      -0.00349800       0.00099500      -0.00252800 
      47      -0.01351625       4.04140420      -4.05757345      -0.00349600      -0.00110600      -0.00013800 
      47      -8.11933132      -0.00356849      -0.01426794       0.05446400       0.01798900       0.03418300 
      47      -4.05530113       8.07252370      -0.00367408       0.00390200       0.00161600       0.00021500 
      47       0.00256060       6.05191924      -2.02823950       0.00362500       0.00156200       0.00054000 
      47      -6.08558214       4.03562528      -2.03520106       0.00368300       0.00110800       0.00003800 
      47      -6.08103015       4.03598457       2.02260973       0.00338300       0.00151400       0.00021100 
      47      -2.02316842       2.01538011      -0.00195568       0.00394800       0.00192800       0.00072800 
      47      -2.01043855       4.04201159       2.02723830       0.00114200       0.00239800      -0.00280200 
      47      -8.09858129       2.02571763       2.02027674       0.00076000      -0.00697800      -0.00651000 
      47      -4.04071955       0.00511316      -0.00428867       0.00006000       0.00013700      -0.00078100 
      47       0.01529048       8.07855071       0.00095449      -0.00938000      -0.01045800      -0.00052600 
      47      -6.07285226       6.06225675      -0.00600707       0.00009900       0.00002700      -0.00004800 
      47      -2.01499053       4.04165229      -2.03057248       0.00045700       0.00030900      -0.00065300 
      46      -0.00185172      10.09404198       2.02980855      -0.00166500       0.00017700       0.00267700 
      46      -2.03668472       6.05678426      -4.05952920      -0.00465100       0.00524500       0.00050800 
      46      -2.03213273       6.05714356      -0.00171842       0.00030900      -0.00001900      -0.00012600 
      46      -2.02758075       6.05750285       4.05609237       0.00028300      -0.00017900       0.00013100 
      46      -4.06241374       2.02024513      -2.03324539      -0.00020100      -0.00025800       0.00010000 
      46      -4.05786176       2.02060443       2.02456539      -0.01067100       0.00018300      -0.01124100 
      46      -6.10983691      -0.00116194      -2.03591829      -0.00200300       0.00032100       0.00399300 
      46      -2.05382688       8.07227561      -2.03067513      -0.01231700      -0.00006100      -0.01134000 
      46       2.00403486       6.05167115      -4.05524054      -0.00013000      -0.00045400      -0.00013200 
      46      -4.08410789       4.03537719      -4.06220210      -0.00015000       0.00005700       0.00101700 
      46      -4.07955590       4.03573649      -0.00439132      -0.00061700      -0.00034600       0.00059900 
      46      -0.02169417       2.01513202      -2.02895673      -0.00394100       0.00453200       0.00050600 
30
Lattice="-4.053309746839312 2.0209637622736336 6.0823761966495535 4.051458046155711 8.073078250228154 -4.052567624491645 -6.092694728778664 -2.0166532573608587 -4.064772343690295" Properties=Z:I:1:pos:R:3:vasp_force:R:3 uuid=d8ee12cf-ad8d-4d4a-920b-4cb93a722df2 vasp_virial="-0.10776462088596246 -0.10613639911149018 -0.40960518287867104 -0.10613639911149018 -0.18383028554309724 0.001295105656176813 -0.40960518287867104 0.001295105656176813 0.5061372527850999" vasp_energy=-113.344055 pbc="T T T"
      47      -0.00896427       4.04176349       0.00023733      -0.00385200      -0.00124200      -0.00025400 
      47      -6.09710701       2.02546954      -0.00672422       0.00439100       0.00685700      -0.00053300 
      47      -2.03924528       0.00486507      -2.03128964      -0.00353600      -0.00145800       0.00007300 
      47       2.01676476       8.07830262      -2.02604648      -0.00387000       0.00523900       0.00596900 
      47      -4.07137799       6.06200866      -2.03300804      -0.00403500      -0.00414800       0.00105600 
      47      -0.01351625       4.04140420      -4.05757345      -0.00386300      -0.00186200      -0.00021200 
      47      -8.10329100       0.00174079      -0.00356655      -0.04825900      -0.01596900      -0.03346900 
      47      -4.05530113       8.07252370      -0.00367408       0.00357200       0.00138500       0.00011800 
      47       0.00256060       6.05191924      -2.02823950       0.00401500       0.00161400       0.00090900 
      47      -6.08558214       4.03562528      -2.03520106       0.00430200       0.00137800       0.00062600 
      47      -6.08103015       4.03598457       2.02260973       0.00409900       0.00148600       0.00012900 
      47      -2.02316842       2.01538011      -0.00195568       0.00369400       0.00124900       0.00073500 
      47      -2.01043855       4.04201159       2.02723830      -0.00024700      -0.00286100       0.00092300 
      47      -8.09858129       2.02571763       2.02027674      -0.00045400       0.00720400       0.00655400 
      47      -4.04071955       0.00511316      -0.00428867       0.00066600       0.00006400      -0.00067200 
      47       0.01529048       8.07855071       0.00095449       0.00991900       0.00959100      -0.00130700 
      47      -6.07285226       6.06225675      -0.00600707       0.00026000       0.00000900      -0.00007800 
      47      -2.01499053       4.04165229      -2.03057248       0.00026900      -0.00010200      -0.00079300 
      46      -0.00185172      10.09404198       2.02980855       0.00174700      -0.00014900      -0.00267300 
      46      -2.03668472       6.05678426      -4.05952920       0.00418100      -0.00552000      -0.00031100 
      46      -2.03213273       6.05714356      -0.00171842       0.00031700       0.00023200      -0.00010100 
      46      -2.02758075       6.05750285       4.05609237      -0.00022300       0.00019600      -0.00013500 
      46      -4.06241374       2.02024513      -2.03324539      -0.00030800       0.00007800       0.00012600 
      46      -4.05786176       2.02060443       2.02456539       0.01077900       0.00006500       0.01045700 
      46      -6.10983691      -0.00116194      -2.03591829       0.00121200       0.00017400      -0.00211400 
      46      -2.05382688       8.07227561      -2.03067513       0.01226900      -0.00014200       0.01338500 
      46       2.00403486       6.05167115      -4.05524054      -0.00010800       0.00044900       0.00024800 
      46      -4.08410789       4.03537719      -4.06220210      -0.00061000       0.00044800       0.00086600 
      46      -4.07955590       4.03573649      -0.00439132       0.00001400       0.00018100       0.00084100 
      46      -0.02169417       2.01513202      -2.02895673       0.00365800      -0.00444600      -0.00036400 
30
Lattice="-4.053309746839312 2.0209637622736336 6.0823761966495535 4.051458046155711 8.073078250228154 -4.052567624491645 -6.092694728778664 -2.0166532573608587 -4.064772343690295" Properties=Z:I:1:pos:R:3:vasp_force:R:3 uuid=3ea93d85-c92e-487d-8d72-57943678aecb vasp_virial="-0.11762734857530897 -0.09775868439809643 -0.40895763005058255 -0.09775868439809643 -0.18621813659667324 0.0022384157855555977 -0.40895763005058255 0.0022384157855555977 0.49994191563175416" vasp_energy=-113.34402279 pbc="T T T"
      47      -0.00896427       4.04176349       0.00023733      -0.01620000      -0.00140200       0.01201800 
      47      -6.09710701       2.02546954      -0.00672422      -0.00063200      -0.00201400       0.00094100 
      47      -2.03924528       0.00486507      -2.03128964      -0.00380100      -0.00119000       0.00027800 
      47       2.01676476       8.07830262      -2.02604648      -0.00378300      -0.00118400      -0.00044200 
      47      -4.07137799       6.06200866      -2.03300804      -0.00371300      -0.00208100      -0.00062300 
      47      -0.01351625       4.04140420      -4.05757345      -0.00982800       0.00474000      -0.00091900 
      47      -8.11131116      -0.00091385      -0.00891724       0.00434600      -0.00363800       0.00434700 
      47      -4.05530113       8.07252370      -0.00367408       0.00368700       0.00146800       0.00007800 
      47       0.00256060       6.05191924      -2.02823950       0.00366600       0.00163000       0.00075100 
      47      -6.08558214       4.03562528      -2.03520106       0.00187500      -0.00163000      -0.00037500 
      47      -6.08103015       4.03598457       2.02260973       0.00360500       0.00149800       0.00007000 
      47      -2.02316842       2.01538011      -0.00195568       0.00426800       0.01029900       0.00930200 
      47      -2.01578348       4.04467655       2.03525888       0.03449300      -0.01674300      -0.05113700 
      47      -8.09858129       2.02571763       2.02027674       0.00009700      -0.00002600       0.00044900 
      47      -4.04071955       0.00511316      -0.00428867       0.00031100       0.00014800      -0.00080500 
      47       0.01529048       8.07855071       0.00095449       0.00043100      -0.00045800      -0.00103200 
      47      -6.07285226       6.06225675      -0.00600707       0.00018900       0.00011200      -0.00012000 
      47      -2.01499053       4.04165229      -2.03057248       0.00026200       0.00013100      -0.00024600 
      46      -0.00185172      10.09404198       2.02980855      -0.00012900       0.00008000       0.00013300 
      46      -2.03668472       6.05678426      -4.05952920      -0.00048300       0.00012500       0.00003300 
      46      -2.03213273       6.05714356      -0.00171842       0.00113800      -0.00547200       0.00414200 
      46      -2.02758075       6.05750285       4.05609237       0.00023400       0.01043000       0.01014700 
      46      -4.06241374       2.02024513      -2.03324539      -0.00053700      -0.00010900       0.00000800 
      46      -4.05786176       2.02060443       2.02456539      -0.00146000      -0.00277100      -0.00114700 
      46      -6.10983691      -0.00116194      -2.03591829      -0.00833100       0.00861300      -0.00016000 
      46      -2.05382688       8.07227561      -2.03067513      -0.00016300      -0.00023600       0.00068700 
      46       2.00403486       6.05167115      -4.05524054      -0.00003100       0.00008600      -0.00011500 
      46      -4.08410789       4.03537719      -4.06220210      -0.00052700       0.00023200       0.00103900 
      46      -4.07955590       4.03573649      -0.00439132       0.00230500      -0.00035200       0.00198600 
      46      -0.02169417       2.01513202      -2.02895673      -0.01128900      -0.00028600       0.01071100 
30
Lattice="-4.053309746839312 2.0209637622736336 6.0823761966495535 4.051458046155711 8.073078250228154 -4.052567624491645 -6.092694728778664 -2.0166532573608587 -4.064772343690295" Properties=Z:I:1:pos:R:3:vasp_force:R:3 uuid=d426091e-7a4f-4a9b-bc05-10b76f38bee9 vasp_virial="-0.10312278787307874 -0.10528648602462415 -0.41919394590998 -0.10528648602462415 -0.17763183515500103 -0.0019364320147643697 -0.41919394590998 -0.0019364320147643697 0.5067754659089371" vasp_energy=-113.34403386 pbc="T T T"
      47      -0.00896427       4.04176349       0.00023733       0.00890800      -0.00109200      -0.01331700 
      47      -6.09710701       2.02546954      -0.00672422      -0.00691300      -0.00121100      -0.00247700 
      47      -2.03924528       0.00486507      -2.03128964      -0.00359400      -0.00185400      -0.00067800 
      47       2.01676476       8.07830262      -2.02604648      -0.00412000      -0.00134000      -0.00027600 
      47      -4.07137799       6.06200866      -2.03300804      -0.00384000      -0.00113400      -0.00088600 
      47      -0.01351625       4.04140420      -4.05757345       0.00226600      -0.00759700       0.00046700 
      47      -8.11131116      -0.00091385      -0.00891724       0.00363000       0.00597400      -0.00369100 
      47      -4.05530113       8.07252370      -0.00367408       0.00375500       0.00146500       0.00021800 
      47       0.00256060       6.05191924      -2.02823950       0.00393300       0.00148600       0.00065600 
      47      -6.08558214       4.03562528      -2.03520106       0.00605200       0.00405700       0.00101100 
      47      -6.08103015       4.03598457       2.02260973       0.00384300       0.00144100       0.00022200 
      47      -2.02316842       2.01538011      -0.00195568       0.00327500      -0.00754500      -0.00820000 
      47      -2.00509361       4.03934662       2.01921772      -0.03448200       0.01774200       0.05082600 
      47      -8.09858129       2.02571763       2.02027674       0.00022400      -0.00000800      -0.00062200 
      47      -4.04071955       0.00511316      -0.00428867       0.00037700      -0.00000900      -0.00068800 
      47       0.01529048       8.07855071       0.00095449       0.00040700      -0.00007700      -0.00090400 
      47      -6.07285226       6.06225675      -0.00600707       0.00013100      -0.00014200      -0.00005400 
      47      -2.01499053       4.04165229      -2.03057248       0.00042000       0.00001200      -0.00125100 
      46      -0.00185172      10.09404198       2.02980855       0.00015300      -0.00013100      -0.00018200 
      46      -2.03668472       6.05678426      -4.05952920      -0.00006300      -0.00037500       0.00014100 
      46      -2.03213273       6.05714356      -0.00171842      -0.00057800       0.00570900      -0.00444800 
      46      -2.02758075       6.05750285       4.05609237      -0.00014800      -0.01011300      -0.00989300 
      46      -4.06241374       2.02024513      -2.03324539      -0.00000800      -0.00013900       0.00017200 
      46      -4.05786176       2.02060443       2.02456539       0.00207300       0.00292000       0.00084800 
      46      -6.10983691      -0.00116194      -2.03591829       0.00770800      -0.00837700       0.00206700 
      46      -2.05382688       8.07227561      -2.03067513      -0.00048000      -0.00000500       0.00070500 
      46       2.00403486       6.05167115      -4.05524054      -0.00024200      -0.00016000       0.00018800 
      46      -4.08410789       4.03537719      -4.06220210      -0.00026100       0.00020800       0.00079900 
      46      -4.07955590       4.03573649      -0.00439132      -0.00294800       0.00011700      -0.00056700 
      46      -0.02169417       2.01513202      -2.02895673       0.01052200       0.00017900      -0.01018500 
30
Lattice="-4.053309746839312 2.0209637622736336 6.0823761966495535 4.051458046155711 8.073078250228154 -4.052567624491645 -6.092694728778664 -2.0166532573608587 -4.064772343690295" Properties=Z:I:1:pos:R:3:vasp_force:R:3 uuid=bbebf75b-097e-42d8-9dd7-6ef6f7a36850 vasp_virial="-0.10679640487858028 -0.09670329781770234 -0.41614297585456356 -0.09670329781770234 -0.17871524084814894 -0.002036055526777971 -0.41614297585456356 -0.002036055526777971 0.507777927498574" vasp_energy=-113.34402723 pbc="T T T"
      47      -0.00896427       4.04176349       0.00023733       0.00388100      -0.00204600      -0.00824200 
      47      -6.09710701       2.02546954      -0.00672422      -0.00403200      -0.00219300      -0.00026800 
      47      -2.03924528       0.00486507      -2.03128964      -0.00348000      -0.00132400      -0.00008900 
      47       2.01676476       8.07830262      -2.02604648      -0.00401400      -0.00084200      -0.00031500 
      47      -4.07137799       6.06200866      -2.03300804      -0.00336000      -0.00079800      -0.00124200 
      47      -0.01351625       4.04140420      -4.05757345      -0.00724400       0.00099500       0.00022500 
      47      -8.11131116      -0.00091385      -0.00891724       0.00377200       0.01105200      -0.01008500 
      47      -4.05530113       8.07252370      -0.00367408       0.00350500       0.00149700       0.00010400 
      47       0.00256060       6.05191924      -2.02823950       0.00377800       0.00169000       0.00070700 
      47      -6.08558214       4.03562528      -2.03520106       0.01559300       0.01265700       0.00067800 
      47      -6.08103015       4.03598457       2.02260973       0.00380100       0.00132000       0.00020800 
      47      -2.02316842       2.01538011      -0.00195568       0.00360800       0.00449200       0.00484800 
      47      -2.00634621       4.05016612       2.02314484      -0.02597700      -0.05312000       0.02565700 
      47      -8.09858129       2.02571763       2.02027674       0.00008800      -0.00016600      -0.00029600 
      47      -4.04071955       0.00511316      -0.00428867       0.00033300       0.00019400      -0.00061100 
      47       0.01529048       8.07855071       0.00095449       0.00056500       0.00009800      -0.00112100 
      47      -6.07285226       6.06225675      -0.00600707       0.00017300       0.00007700       0.00001100 
      47      -2.01499053       4.04165229      -2.03057248       0.00025600      -0.00011300      -0.00103300 
      46      -0.00185172      10.09404198       2.02980855      -0.00001000       0.00007900      -0.00009800 
      46      -2.03668472       6.05678426      -4.05952920      -0.00055500       0.00003100       0.00003400 
      46      -2.03213273       6.05714356      -0.00171842      -0.00053400       0.01131900      -0.01196200 
      46      -2.02758075       6.05750285       4.05609237      -0.00033400       0.00283300       0.00424800 
      46      -4.06241374       2.02024513      -2.03324539      -0.00005700      -0.00025300       0.00023100 
      46      -4.05786176       2.02060443       2.02456539       0.01084800       0.00991400       0.00038900 
      46      -6.10983691      -0.00116194      -2.03591829      -0.00545100       0.00370800       0.00150300 
      46      -2.05382688       8.07227561      -2.03067513      -0.00031000       0.00007200       0.00063200 
      46       2.00403486       6.05167115      -4.05524054      -0.00022200       0.00042300       0.00010900 
      46      -4.08410789       4.03537719      -4.06220210      -0.00025500       0.00029300       0.00089200 
      46      -4.07955590       4.03573649      -0.00439132      -0.00062400      -0.00096900       0.00125600 
      46      -0.02169417       2.01513202      -2.02895673       0.00626000      -0.00092000      -0.00636800 
30
Lattice="-4.053309746839312 2.0209637622736336 6.0823761966495535 4.051458046155711 8.073078250228154 -4.052567624491645 -6.092694728778664 -2.0166532573608587 -4.064772343690295" Properties=Z:I:1:pos:R:3:vasp_force:R:3 uuid=20d52558-5aef-450a-af7d-6e6926c785aa vasp_virial="-0.11409071389882615 -0.10485997286381592 -0.4109687796993572 -0.10485997286381592 -0.18474246332497182 0.0003268896487946283 -0.4109687796993572 0.0003268896487946283 0.49886784964285746" vasp_energy=-113.34402235 pbc="T T T"
      47      -0.00896427       4.04176349       0.00023733      -0.01159300      -0.00051600       0.00734500 
      47      -6.09710701       2.02546954      -0.00672422      -0.00356900      -0.00098900      -0.00125800 
      47      -2.03924528       0.00486507      -2.03128964      -0.00392300      -0.00167800      -0.00028500 
      47       2.01676476       8.07830262      -2.02604648      -0.00389700      -0.00164700      -0.00038200 
      47      -4.07137799       6.06200866      -2.03300804      -0.00419500      -0.00238900      -0.00023600 
      47      -0.01351625       4.04140420      -4.05757345      -0.00020200      -0.00400400      -0.00058400 
      47      -8.11131116      -0.00091385      -0.00891724       0.00421100      -0.00901900       0.01121600 
      47      -4.05530113       8.07252370      -0.00367408       0.00392500       0.00148100       0.00021100 
      47       0.00256060       6.05191924      -2.02823950       0.00381000       0.00146900       0.00072200 
      47      -6.08558214       4.03562528      -2.03520106      -0.00713900      -0.00972300       0.00000800 
      47      -6.08103015       4.03598457       2.02260973       0.00363200       0.00165800       0.00011000 
      47      -2.02316842       2.01538011      -0.00195568       0.00399300      -0.00132700      -0.00346500 
      47      -2.01453088       4.03385705       2.03133176       0.02631900       0.05295400      -0.02668400 
      47      -8.09858129       2.02571763       2.02027674       0.00022100       0.00017400       0.00014400 
      47      -4.04071955       0.00511316      -0.00428867       0.00034500      -0.00001800      -0.00086200 
      47       0.01529048       8.07855071       0.00095449       0.00026300      -0.00059500      -0.00079100 
      47      -6.07285226       6.06225675      -0.00600707       0.00013400      -0.00006900      -0.00016200 
      47      -2.01499053       4.04165229      -2.03057248       0.00041900       0.00029000      -0.00043800 
      46      -0.00185172      10.09404198       2.02980855       0.00002300      -0.00009000       0.00007100 
      46      -2.03668472       6.05678426      -4.05952920       0.00000200      -0.00024300       0.00016400 
      46      -2.03213273       6.05714356      -0.00171842       0.00105800      -0.01070600       0.01122900 