  30
   1   1
     6.144673691958216    -0.869012451771872    -0.741538087790961
    -0.856668578663133     6.070116928428418     0.819044353349370
    -0.740822020285092     0.792677748047538     6.142205146552430
   1   2
    -1.163093669484184    -0.525071213471576    -0.566249046164327
    -0.525529674951271    -0.638716380959972    -0.008089051249235
    -0.566280271401935    -0.007297877378575    -0.687675531782476
   1   3
    -0.107422427975550    -0.062056122756233    -0.058795165694776
    -0.062220691804109    -0.632187965648539     0.635178452071131
    -0.059117881233699     0.635999426895291    -0.629295430641640
   1   4
    -0.107376142248078    -0.061985554069874    -0.058836697168596
    -0.062151713279913    -0.632277866100478     0.635245978100159
    -0.059085988798032     0.635940809794964    -0.629267678560300
   1   5
    -1.163002744270478    -0.525137255489961    -0.566204703301010
    -0.525471611060083    -0.638663491957346    -0.008088152476269
    -0.566265559377695    -0.007286082205204    -0.687659764003115
   1   6
    -0.913350668223343    -0.023627699834102     1.018998653446300
    -0.011863458061064     0.086854637678385     0.011218897901541
     1.016042804555914     0.016409655636412    -0.912668774692998
   1   7
     0.030799166358908    -0.016879539777879    -0.017215568237915
    -0.040836265004020    -0.886675166774870    -1.034038462781253
    -0.039989246214719    -1.034678020427815    -0.883878125783896
   1   8
    -0.909764814371698     1.021422876875879    -0.022225856933132
     1.019306566683767    -0.908884494757369     0.014516950368556
    -0.014689428494289     0.012069728262279     0.091725669106068
   1   9
     0.000072965553853     0.000910230240596     0.003848207037799
     0.013764912756565    -0.071522354389762    -0.002123038085951
     0.004616419964715     0.011025289317039     0.005672562172588
   1  10
     0.003294023292658     0.009334640908948    -0.001442897739797
     0.007789586813758     0.009648063965578     0.011807642513472
     0.014337325685994     0.002162060403334    -0.061735168450544
   1  11
    -0.010321483828572     0.007855644556314     0.021364374890356
    -0.003373718739690    -0.003611848078306    -0.021992915099487
     0.015741891117972    -0.014751480537026    -0.018344074039209
   1  12
    -0.016032615076121     0.003647198631221     0.001285317254148
     0.023888327649193     0.002626738754992    -0.000949744192438
     0.023925648798918    -0.001516644477038     0.001529052425011
   1  13
    -0.010576359577725     0.023845979543150     0.005740529992676
     0.015646215331511    -0.015371163444113    -0.016939453144187
    -0.007635216367108    -0.020413245841475    -0.002856510148690
   1  14
     0.013531324094639    -0.000168865620896    -0.005248895658467
     0.001721675048895     0.017216853257864     0.002656294515167
    -0.009577475676749     0.003107411371793     0.000851710244382
   1  15
     0.011903838169125    -0.005039668125548    -0.003690465065906
    -0.007475908491063    -0.000872248869096     0.000152574132202
    -0.000051856965030     0.000638222550442     0.017572034078957
   1  16
     0.001711531827375    -0.002115833613096    -0.003485327002617
    -0.002252953762084     0.018333274780261    -0.001192084481048
    -0.002663854483729     0.000226198949277     0.019085712190000
   1  17
     0.005104106749101    -0.003472912295753    -0.006857330226825
     0.003866314758972    -0.004391071316205    -0.006635511747106
     0.002381601467732    -0.004867012045714    -0.003662437093996
   1  18
    -0.007484885527339     0.004985628078488     0.003276518773225
    -0.004681294080350     0.001024409712202     0.005367847780320
    -0.007538284348929     0.005087716231135     0.001570369123510
   1  19
    -0.007488715920387     0.004995247753225     0.003277768818492
    -0.004693267560466     0.001014323220774     0.005389056772889
    -0.007543133324954     0.005088379258784     0.001577255582249
   1  20
     0.005093240397656    -0.003471969579985    -0.006841315182059
     0.003852578368466    -0.004374345139712    -0.006629185453781
     0.002376672609412    -0.004861145591260    -0.003657934707832
   1  21
    -0.010583545189652     0.023831403091234     0.005790237423521
     0.015807901418487    -0.015555153002007    -0.017039387325749
    -0.007557267020760    -0.020497590224725    -0.002908635210879
   1  22
    -0.015959863754982     0.003617813530182     0.001262874643844
     0.024074533411994     0.002500240500906    -0.001077649759768
     0.024011422418004    -0.001567633556463     0.001471689081069
   1  23
    -0.010328945484154     0.007894056531399     0.021344879458975
    -0.003223178429951    -0.003705963511175    -0.022182230197613
     0.015816855282050    -0.014799073121810    -0.018434079582595
   1  24
     0.011823475230116    -0.004981383276586    -0.003693209615737
    -0.007435816507025    -0.000951740187553     0.000046402607204
    -0.000009517657776     0.000595021146355     0.017528237064248
   1  25
     0.013443806281425    -0.000159780530619    -0.005181751664415
     0.001780075992656     0.017100576247996     0.002581125189507
    -0.009535496538376     0.003064775878267     0.000812186129717
   1  26
    -0.913201850093559    -0.023693389737167     1.018856531212027
    -0.012268755305865     0.087492637312487     0.011513230947043
     1.015941480625116     0.016785957491002    -0.912643802617342
   1  27
     0.003498994371712     0.009252300237759    -0.001668530976053
     0.007388646542172     0.010178076777108     0.012255283223769
     0.014068569785275     0.002491125075987    -0.061464520059608
   1  28
     0.000254001365694     0.000726695518069     0.003733940514347
     0.013376488894609    -0.071112189472558    -0.001565151329601
     0.004368371597809     0.011272469927518     0.006032760591780
   1  29
    -0.909947811512243     1.021623911090220    -0.022233687093757
     1.019368983083748    -0.909081559449496     0.015118263432746
    -0.014923045466715     0.012231726987321     0.092109965710457
   1  30
     0.030731033466011    -0.017069000150463    -0.017373338847670
    -0.041487514576558    -0.886153128703572    -1.033551219954310
    -0.040344136802664    -1.034337290658996    -0.883593040945453
   2   1
    -1.163002744270479    -0.525137255489962    -0.566204703301010
    -0.525471611060084    -0.638663491957346    -0.008088152476269
    -0.566265559377696    -0.007286082205204    -0.687659764003116
   2   2
     6.144673691958219    -0.869012451771871    -0.741538087790962
    -0.856668578663133     6.070116928428416     0.819044353349371
    -0.740822020285092     0.792677748047539     6.142205146552433
   2   3
    -1.163093669484184    -0.525071213471576    -0.566249046164327
    -0.525529674951272    -0.638716380959972    -0.008089051249236
    -0.566280271401935    -0.007297877378575    -0.687675531782476
   2   4
    -0.107422427975550    -0.062056122756233    -0.058795165694776
    -0.062220691804109    -0.632187965648539     0.635178452071131
    -0.059117881233699     0.635999426895291    -0.629295430641640
   2   5
    -0.107376142248078    -0.061985554069874    -0.058836697168596
    -0.062151713279913    -0.632277866100477     0.635245978100159
    -0.059085988798032     0.635940809794964    -0.629267678560301
   2   6
     0.003294023292658     0.009334640908948    -0.001442897739797
     0.007789586813758     0.009648063965578     0.011807642513472
     0.014337325685994     0.002162060403334    -0.061735168450544
   2   7
    -0.913350668223344    -0.023627699834102     1.018998653446300
    -0.011863458061064     0.086854637678385     0.011218897901541
     1.016042804555914     0.016409655636412    -0.912668774692998
   2   8
     0.030799166358908    -0.016879539777879    -0.017215568237915
    -0.040836265004020    -0.886675166774870    -1.034038462781253
    -0.039989246214719    -1.034678020427815    -0.883878125783896
   2   9
    -0.909764814371698     1.021422876875879    -0.022225856933132
     1.019306566683767    -0.908884494757368     0.014516950368556
    -0.014689428494289     0.012069728262279     0.091725669106068
   2  10
     0.000072965553853     0.000910230240596     0.003848207037799
     0.013764912756565    -0.071522354389762    -0.002123038085951
     0.004616419964715     0.011025289317039     0.005672562172588
   2  11
     0.011903838169125    -0.005039668125548    -0.003690465065906
    -0.007475908491063    -0.000872248869096     0.000152574132202
    -0.000051856965030     0.000638222550442     0.017572034078957
   2  12
    -0.010321483828572     0.007855644556314     0.021364374890356
    -0.003373718739690    -0.003611848078306    -0.021992915099487
     0.015741891117972    -0.014751480537026    -0.018344074039209
   2  13
    -0.016032615076121     0.003647198631221     0.001285317254148
     0.023888327649193     0.002626738754992    -0.000949744192438
     0.023925648798918    -0.001516644477038     0.001529052425011
   2  14
    -0.010576359577725     0.023845979543150     0.005740529992676
     0.015646215331511    -0.015371163444113    -0.016939453144187
    -0.007635216367108    -0.020413245841475    -0.002856510148690
   2  15
     0.013531324094639    -0.000168865620896    -0.005248895658467
     0.001721675048895     0.017216853257864     0.002656294515167
    -0.009577475676749     0.003107411371793     0.000851710244382
   2  16
     0.005093240397656    -0.003471969579985    -0.006841315182059
     0.003852578368466    -0.004374345139712    -0.006629185453781
     0.002376672609412    -0.004861145591260    -0.003657934707832
   2  17
     0.001711531827375    -0.002115833613096    -0.003485327002617
    -0.002252953762084     0.018333274780261    -0.001192084481048
    -0.002663854483729     0.000226198949277     0.019085712190000
   2  18
     0.005104106749101    -0.003472912295753    -0.006857330226825
     0.003866314758972    -0.004391071316205    -0.006635511747106
     0.002381601467732    -0.004867012045714    -0.003662437093996
   2  19
    -0.007484885527339     0.004985628078488     0.003276518773225
    -0.004681294080350     0.001024409712202     0.005367847780320
    -0.007538284348929     0.005087716231135     0.001570369123510
   2  20
    -0.007488715920387     0.004995247753225     0.003277768818492
    -0.004693267560466     0.001014323220774     0.005389056772889
    -0.007543133324954     0.005088379258784     0.001577255582249
   2  21
     0.013443806281425    -0.000159780530619    -0.005181751664415
     0.001780075992656     0.017100576247996     0.002581125189507
    -0.009535496538376     0.003064775878267     0.000812186129717
   2  22
    -0.010583545189652     0.023831403091234     0.005790237423521
     0.015807901418487    -0.015555153002007    -0.017039387325749
    -0.007557267020760    -0.020497590224725    -0.002908635210879
   2  23
    -0.015959863754982     0.003617813530182     0.001262874643844
     0.024074533411994     0.002500240500906    -0.001077649759768
     0.024011422418004    -0.001567633556463     0.001471689081069
   2  24
    -0.010328945484154     0.007894056531399     0.021344879458975
    -0.003223178429951    -0.003705963511175    -0.022182230197613
     0.015816855282050    -0.014799073121810    -0.018434079582595
   2  25
     0.011823475230116    -0.004981383276586    -0.003693209615737
    -0.007435816507025    -0.000951740187553     0.000046402607204
    -0.000009517657776     0.000595021146355     0.017528237064248
   2  26
     0.030731033466011    -0.017069000150463    -0.017373338847670
    -0.041487514576558    -0.886153128703572    -1.033551219954310
    -0.040344136802664    -1.034337290658996    -0.883593040945454
   2  27
    -0.913201850093559    -0.023693389737167     1.018856531212027
    -0.012268755305865     0.087492637312487     0.011513230947043
     1.015941480625117     0.016785957491002    -0.912643802617342
   2  28
     0.003498994371712     0.009252300237759    -0.001668530976053
     0.007388646542172     0.010178076777108     0.012255283223769
     0.014068569785275     0.002491125075987    -0.061464520059608
   2  29
     0.000254001365694     0.000726695518069     0.003733940514347
     0.013376488894608    -0.071112189472558    -0.001565151329601
     0.004368371597809     0.011272469927518     0.006032760591780
   2  30
    -0.909947811512243     1.021623911090220    -0.022233687093757
     1.019368983083748    -0.909081559449495     0.015118263432746
    -0.014923045466715     0.012231726987321     0.092109965710458
   3   1
    -0.107376142248078    -0.061985554069874    -0.058836697168596
    -0.062151713279913    -0.632277866100477     0.635245978100159
    -0.059085988798032     0.635940809794964    -0.629267678560301
   3   2
    -1.163002744270479    -0.525137255489962    -0.566204703301010
    -0.525471611060084    -0.638663491957346    -0.008088152476269
    -0.566265559377696    -0.007286082205204    -0.687659764003116
   3   3
     6.144673691958219    -0.869012451771871    -0.741538087790962
    -0.856668578663133     6.070116928428416     0.819044353349371
    -0.740822020285092     0.792677748047539     6.142205146552433
   3   4
    -1.163093669484184    -0.525071213471576    -0.566249046164327
    -0.525529674951272    -0.638716380959972    -0.008089051249236
    -0.566280271401935    -0.007297877378575    -0.687675531782476
   3   5
    -0.107422427975550    -0.062056122756233    -0.058795165694776
    -0.062220691804109    -0.632187965648539     0.635178452071131
    -0.059117881233699     0.635999426895291    -0.629295430641640
   3   6
     0.000072965553853     0.000910230240596     0.003848207037799
     0.013764912756565    -0.071522354389762    -0.002123038085951
     0.004616419964715     0.011025289317039     0.005672562172588
   3   7
     0.003294023292658     0.009334640908948    -0.001442897739797
     0.007789586813758     0.009648063965578     0.011807642513472
     0.014337325685994     0.002162060403334    -0.061735168450544
   3   8
    -0.913350668223344    -0.023627699834102     1.018998653446300
    -0.011863458061064     0.086854637678385     0.011218897901541
     1.016042804555914     0.016409655636412    -0.912668774692998
   3   9
     0.030799166358908    -0.016879539777879    -0.017215568237915
    -0.040836265004020    -0.886675166774870    -1.034038462781253
    -0.039989246214719    -1.034678020427815    -0.883878125783896
   3  10
    -0.909764814371698     1.021422876875879    -0.022225856933132
     1.019306566683767    -0.908884494757368     0.014516950368556
    -0.014689428494289     0.012069728262279     0.091725669106068
   3  11
     0.013531324094639    -0.000168865620896    -0.005248895658467
     0.001721675048895     0.017216853257864     0.002656294515167
    -0.009577475676749     0.003107411371793     0.000851710244382
   3  12
     0.011903838169125    -0.005039668125548    -0.003690465065906
    -0.007475908491063    -0.000872248869096     0.000152574132202
    -0.000051856965030     0.000638222550442     0.017572034078957
   3  13
    -0.010321483828572     0.007855644556314     0.021364374890356
    -0.003373718739690    -0.003611848078306    -0.021992915099487
     0.015741891117972    -0.014751480537026    -0.018344074039209
   3  14
    -0.016032615076121     0.003647198631221     0.001285317254148
     0.023888327649193     0.002626738754992    -0.000949744192438
     0.023925648798918    -0.001516644477038     0.001529052425011
   3  15
    -0.010576359577725     0.023845979543150     0.005740529992676
     0.015646215331511    -0.015371163444113    -0.016939453144187
    -0.007635216367108    -0.020413245841475    -0.002856510148690
   3  16
    -0.007488715920387     0.004995247753225     0.003277768818492
    -0.004693267560466     0.001014323220774     0.005389056772889
    -0.007543133324954     0.005088379258784     0.001577255582249
   3  17
     0.005093240397656    -0.003471969579985    -0.006841315182059
     0.003852578368466    -0.004374345139712    -0.006629185453781
     0.002376672609412    -0.004861145591260    -0.003657934707832
   3  18
     0.001711531827375    -0.002115833613096    -0.003485327002617
    -0.002252953762084     0.018333274780261    -0.001192084481048
    -0.002663854483729     0.000226198949277     0.019085712190000
   3  19
     0.005104106749101    -0.003472912295753    -0.006857330226825
     0.003866314758972    -0.004391071316205    -0.006635511747106
     0.002381601467732    -0.004867012045714    -0.003662437093996
   3  20
    -0.007484885527339     0.004985628078488     0.003276518773225
    -0.004681294080350     0.001024409712202     0.005367847780320
    -0.007538284348929     0.005087716231135     0.001570369123510
   3  21
     0.011823475230116    -0.004981383276586    -0.003693209615737
    -0.007435816507025    -0.000951740187553     0.000046402607204
    -0.000009517657776     0.000595021146355     0.017528237064248
   3  22
     0.013443806281425    -0.000159780530619    -0.005181751664415
     0.001780075992656     0.017100576247996     0.002581125189507
    -0.009535496538376     0.003064775878267     0.000812186129717
   3  23
    -0.010583545189652     0.023831403091234     0.005790237423521
     0.015807901418487    -0.015555153002007    -0.017039387325749
    -0.007557267020760    -0.020497590224725    -0.002908635210879
   3  24
    -0.015959863754982     0.003617813530182     0.001262874643844
     0.024074533411994     0.002500240500906    -0.001077649759768
     0.024011422418004    -0.001567633556463     0.001471689081069
   3  25
    -0.010328945484154     0.007894056531399     0.021344879458975
    -0.003223178429951    -0.003705963511175    -0.022182230197613
     0.015816855282050    -0.014799073121810    -0.018434079582595
   3  26
    -0.909947811512243     1.021623911090220    -0.022233687093757
     1.019368983083748    -0.909081559449495     0.015118263432746
    -0.014923045466715     0.012231726987321     0.092109965710458
   3  27
     0.030731033466011    -0.017069000150463    -0.017373338847670
    -0.041487514576558    -0.886153128703572    -1.033551219954310
    -0.040344136802664    -1.034337290658996    -0.883593040945454
   3  28
    -0.913201850093559    -0.023693389737167     1.018856531212027
    -0.012268755305865     0.087492637312487     0.011513230947043
     1.015941480625117     0.016785957491002    -0.912643802617342
   3  29
     0.003498994371712     0.009252300237759    -0.001668530976053
     0.007388646542172     0.010178076777108     0.012255283223769
     0.014068569785275     0.002491125075987    -0.061464520059608
   3  30
     0.000254001365694     0.000726695518069     0.003733940514347
     0.013376488894608    -0.071112189472558    -0.001565151329601
     0.004368371597809     0.011272469927518     0.006032760591780
   4   1
    -0.107422427975550    -0.062056122756233    -0.058795165694776
    -0.062220691804109    -0.632187965648539     0.635178452071131
    -0.059117881233699     0.635999426895291    -0.629295430641640
   4   2
    -0.107376142248078    -0.061985554069874    -0.058836697168596
    -0.062151713279913    -0.632277866100477     0.635245978100159
    -0.059085988798032     0.635940809794964    -0.629267678560301
   4   3
    -1.163002744270479    -0.525137255489962    -0.566204703301010
    -0.525471611060084    -0.638663491957346    -0.008088152476269
    -0.566265559377696    -0.007286082205204    -0.687659764003116
   4   4
     6.144673691958219    -0.869012451771871    -0.741538087790962
    -0.856668578663133     6.070116928428416     0.819044353349371
    -0.740822020285092     0.792677748047539     6.142205146552433
   4   5
    -1.163093669484184    -0.525071213471576    -0.566249046164327
    -0.525529674951272    -0.638716380959972    -0.008089051249236
    -0.566280271401935    -0.007297877378575    -0.687675531782476
   4   6
    -0.909764814371698     1.021422876875879    -0.022225856933132
     1.019306566683767    -0.908884494757368     0.014516950368556
    -0.014689428494289     0.012069728262279     0.091725669106068
   4   7
     0.000072965553853     0.000910230240596     0.003848207037799
     0.013764912756565    -0.071522354389762    -0.002123038085951
     0.004616419964715     0.011025289317039     0.005672562172588
   4   8
     0.003294023292658     0.009334640908948    -0.001442897739797
     0.007789586813758     0.009648063965578     0.011807642513472
     0.014337325685994     0.002162060403334    -0.061735168450544
   4   9
    -0.913350668223344    -0.023627699834102     1.018998653446300
    -0.011863458061064     0.086854637678385     0.011218897901541
     1.016042804555914     0.016409655636412    -0.912668774692998
   4  10
     0.030799166358908    -0.016879539777879    -0.017215568237915
    -0.040836265004020    -0.886675166774870    -1.034038462781253
    -0.039989246214719    -1.034678020427815    -0.883878125783896
   4  11
    -0.010576359577725     0.023845979543150     0.005740529992676
     0.015646215331511    -0.015371163444113    -0.016939453144187
    -0.007635216367108    -0.020413245841475    -0.002856510148690
   4  12
     0.013531324094639    -0.000168865620896    -0.005248895658467
     0.001721675048895     0.017216853257864     0.002656294515167
    -0.009577475676749     0.003107411371793     0.000851710244382
   4  13
     0.011903838169125    -0.005039668125548    -0.003690465065906
    -0.007475908491063    -0.000872248869096     0.000152574132202
    -0.000051856965030     0.000638222550442     0.017572034078957
   4  14
    -0.010321483828572     0.007855644556314     0.021364374890356
    -0.003373718739690    -0.003611848078306    -0.021992915099487
     0.015741891117972    -0.014751480537026    -0.018344074039209
   4  15
    -0.016032615076121     0.003647198631221     0.001285317254148
     0.023888327649193     0.002626738754992    -0.000949744192438
     0.023925648798918    -0.001516644477038     0.001529052425011
   4  16
    -0.007484885527339     0.004985628078488     0.003276518773225
    -0.004681294080350     0.001024409712202     0.005367847780320
    -0.007538284348929     0.005087716231135     0.001570369123510
   4  17
    -0.007488715920387     0.004995247753225     0.003277768818492
    -0.004693267560466     0.001014323220774     0.005389056772889
    -0.007543133324954     0.005088379258784     0.001577255582249
   4  18
     0.005093240397656    -0.003471969579985    -0.006841315182059
     0.003852578368466    -0.004374345139712    -0.006629185453781
     0.002376672609412    -0.004861145591260    -0.003657934707832
   4  19
     0.001711531827375    -0.002115833613096    -0.003485327002617
    -0.002252953762084     0.018333274780261    -0.001192084481048
    -0.002663854483729     0.000226198949277     0.019085712190000
   4  20
     0.005104106749101    -0.003472912295753    -0.006857330226825
     0.003866314758972    -0.004391071316205    -0.006635511747106
     0.002381601467732    -0.004867012045714    -0.003662437093996
   4  21
    -0.010328945484154     0.007894056531399     0.021344879458975
    -0.003223178429951    -0.003705963511175    -0.022182230197613
     0.015816855282050    -0.014799073121810    -0.018434079582595
   4  22
     0.011823475230116    -0.004981383276586    -0.003693209615737
    -0.007435816507025    -0.000951740187553     0.000046402607204
    -0.000009517657776     0.000595021146355     0.017528237064248
   4  23
     0.013443806281425    -0.000159780530619    -0.005181751664415
     0.001780075992656     0.017100576247996     0.002581125189507
    -0.009535496538376     0.003064775878267     0.000812186129717
   4  24
    -0.010583545189652     0.023831403091234     0.005790237423521
     0.015807901418487    -0.015555153002007    -0.017039387325749
    -0.007557267020760    -0.020497590224725    -0.002908635210879
   4  25
    -0.015959863754982     0.003617813530182     0.001262874643844
     0.024074533411994     0.002500240500906    -0.001077649759768
     0.024011422418004    -0.001567633556463     0.001471689081069
   4  26
     0.000254001365694     0.000726695518069     0.003733940514347
     0.013376488894608    -0.071112189472558    -0.001565151329601
     0.004368371597809     0.011272469927518     0.006032760591780
   4  27
    -0.909947811512243     1.021623911090220    -0.022233687093757
     1.019368983083748    -0.909081559449495     0.015118263432746
    -0.014923045466715     0.012231726987321     0.092109965710458
   4  28
     0.030731033466011    -0.017069000150463    -0.017373338847670
    -0.041487514576558    -0.886153128703572    -1.033551219954310
    -0.040344136802664    -1.034337290658996    -0.883593040945454
   4  29
    -0.913201850093559    -0.023693389737167     1.018856531212027
    -0.012268755305865     0.087492637312487     0.011513230947043
     1.015941480625117     0.016785957491002    -0.912643802617342
   4  30
     0.003498994371712     0.009252300237759    -0.001668530976053
     0.007388646542172     0.010178076777108     0.012255283223769
     0.014068569785275     0.002491125075987    -0.061464520059608
   5   1
    -1.163093669484184    -0.525071213471576    -0.566249046164327
    -0.525529674951272    -0.638716380959972    -0.008089051249236
    -0.566280271401935    -0.007297877378575    -0.687675531782476
   5   2
    -0.107422427975550    -0.062056122756233    -0.058795165694776
    -0.062220691804109    -0.632187965648539     0.635178452071131
    -0.059117881233699     0.635999426895291    -0.629295430641640
   5   3
    -0.107376142248078    -0.061985554069874    -0.058836697168596
    -0.062151713279913    -0.632277866100477     0.635245978100159
    -0.059085988798032     0.635940809794964    -0.629267678560301
   5   4
    -1.163002744270479    -0.525137255489962    -0.566204703301010
    -0.525471611060084    -0.638663491957346    -0.008088152476269
    -0.566265559377696    -0.007286082205204    -0.687659764003116
   5   5
     6.144673691958219    -0.869012451771871    -0.741538087790962
    -0.856668578663133     6.070116928428416     0.819044353349371
    -0.740822020285092     0.792677748047539     6.142205146552433
   5   6
     0.030799166358908    -0.016879539777879    -0.017215568237915
    -0.040836265004020    -0.886675166774870    -1.034038462781253
    -0.039989246214719    -1.034678020427815    -0.883878125783896
   5   7
    -0.909764814371698     1.021422876875879    -0.022225856933132
     1.019306566683767    -0.908884494757368     0.014516950368556
    -0.014689428494289     0.012069728262279     0.091725669106068
   5   8
     0.000072965553853     0.000910230240596     0.003848207037799
     0.013764912756565    -0.071522354389762    -0.002123038085951
     0.004616419964715     0.011025289317039     0.005672562172588
   5   9
     0.003294023292658     0.009334640908948    -0.001442897739797
     0.007789586813758     0.009648063965578     0.011807642513472
     0.014337325685994     0.002162060403334    -0.061735168450544
   5  10
    -0.913350668223344    -0.023627699834102     1.018998653446300
    -0.011863458061064     0.086854637678385     0.011218897901541
     1.016042804555914     0.016409655636412    -0.912668774692998
   5  11
    -0.016032615076121     0.003647198631221     0.001285317254148
     0.023888327649193     0.002626738754992    -0.000949744192438
     0.023925648798918    -0.001516644477038     0.001529052425011
   5  12
    -0.010576359577725     0.023845979543150     0.005740529992676
     0.015646215331511    -0.015371163444113    -0.016939453144187
    -0.007635216367108    -0.020413245841475    -0.002856510148690
   5  13
     0.013531324094639    -0.000168865620896    -0.005248895658467
     0.001721675048895     0.017216853257864     0.002656294515167
    -0.009577475676749     0.003107411371793     0.000851710244382
   5  14
     0.011903838169125    -0.005039668125548    -0.003690465065906
    -0.007475908491063    -0.000872248869096     0.000152574132202
    -0.000051856965030     0.000638222550442     0.017572034078957
   5  15
    -0.010321483828572     0.007855644556314     0.021364374890356
    -0.003373718739690    -0.003611848078306    -0.021992915099487
     0.015741891117972    -0.014751480537026    -0.018344074039209
   5  16
     0.005104106749101    -0.003472912295753    -0.006857330226825
     0.003866314758972    -0.004391071316205    -0.006635511747106
     0.002381601467732    -0.004867012045714    -0.003662437093996
   5  17
    -0.007484885527339     0.004985628078488     0.003276518773225
    -0.004681294080350     0.001024409712202     0.005367847780320
    -0.007538284348929     0.005087716231135     0.001570369123510
   5  18
    -0.007488715920387     0.004995247753225     0.003277768818492
    -0.004693267560466     0.001014323220774     0.005389056772889
    -0.007543133324954     0.005088379258784     0.001577255582249
   5  19
     0.005093240397656    -0.003471969579985    -0.006841315182059
     0.003852578368466    -0.004374345139712    -0.006629185453781
     0.002376672609412    -0.004861145591260    -0.003657934707832
   5  20
     0.001711531827375    -0.002115833613096    -0.003485327002617
    -0.002252953762084     0.018333274780261    -0.001192084481048
    -0.002663854483729     0.000226198949277     0.019085712190000
   5  21
    -0.015959863754982     0.003617813530182     0.001262874643844
     0.024074533411994     0.002500240500906    -0.001077649759768
     0.024011422418004    -0.001567633556463     0.001471689081069
   5  22
    -0.010328945484154     0.007894056531399     0.021344879458975
    -0.003223178429951    -0.003705963511175    -0.022182230197613
     0.015816855282050    -0.014799073121810    -0.018434079582595
   5  23
     0.011823475230116    -0.004981383276586    -0.003693209615737
    -0.007435816507025    -0.000951740187553     0.000046402607204