  30
   1   1
     6.144672876843357    -0.869012156369619    -0.741539099160481
    -0.856668857497566     6.070115558387229     0.819045716007450
    -0.740822541762685     0.792678573306297     6.142204494184102
   1   2
    -1.163093667720301    -0.525072318810151    -0.566249909259425
    -0.525529678103185    -0.638716749564016    -0.008087811098219
    -0.566280271451614    -0.007297752935150    -0.687675037995487
   1   3
    -0.107421781377234    -0.062056364803403    -0.058795738191105
    -0.062218762914716    -0.632189574390834     0.635178288014629
    -0.059117431997514     0.635999057495015    -0.629294102211677
   1   4
    -0.107375904599417    -0.061985030230811    -0.058837392012321
    -0.062149363804202    -0.632276930782056     0.635247439717734
    -0.059086370216232     0.635941260440148    -0.629268967222206
   1   5
    -1.163002334519409    -0.525135863298460    -0.566204123760591
    -0.525471287971918    -0.638663421292263    -0.008088355141527
    -0.566265477523825    -0.007286496954900    -0.687660714893890
   1   6
    -0.913336542737460    -0.023612109080806     1.018992204119539
    -0.011848466915342     0.086873334301722     0.011212079722216
     1.016035000597875     0.016401347183144    -0.912664934309827
   1   7
     0.030785852702468    -0.016895755930582    -0.017209351752276
    -0.040850606803524    -0.886690277663900    -1.034032876474369
    -0.039981283994741    -1.034669596722234    -0.883882698241051
   1   8
    -0.909750275032224     1.021435732555422    -0.022231036861403
     1.019321893320483    -0.908869713471809     0.014509589809323
    -0.014697147364395     0.012063466530886     0.091728718552413
   1   9
     0.000063657476695     0.000902673422299     0.003851520033424
     0.013755061346477    -0.071530286629610    -0.002121572949109
     0.004620430116890     0.011029997956947     0.005671812399642
   1  10
     0.003287739180088     0.009326318358071    -0.001438530986082
     0.007781862481102     0.009637588240005     0.011812110212304
     0.014340500611374     0.002165948995365    -0.061736135632774
   1  11
    -0.010332180193082     0.007843723876736     0.021369774613501
    -0.003387379778264    -0.003626114344695    -0.021989096526158
     0.015750059035901    -0.014743932550788    -0.018347691019616
   1  12
    -0.016014527397166     0.003666101397915     0.001276537097318
     0.023907836516506     0.002647646853081    -0.000959028064777
     0.023916426807824    -0.001526451259627     0.001533889719159
   1  13
    -0.010588331308835     0.023831321937876     0.005745879570441
     0.015634587574124    -0.015386725228154    -0.016933742999992
    -0.007627760973271    -0.020406274651917    -0.002859470986415
   1  14
     0.013534226285256    -0.000165964423129    -0.005249831573402
     0.001725054489178     0.017220979590986     0.002655400658084
    -0.009580553530073     0.003103584679839     0.000850801206666
   1  15
     0.011907200787656    -0.005034436554941    -0.003689767182144
    -0.007475961541209    -0.000868273672674     0.000151491530100
    -0.000053637308975     0.000636013952715     0.017572950099092
   1  16
     0.001698099572709    -0.002129673356070    -0.003478345546012
    -0.002268657031452     0.018316871988848    -0.001185069326347
    -0.002655514581015     0.000234831291020     0.019083078853116
   1  17
     0.005117541412745    -0.003457849513396    -0.006864480345158
     0.003880150980932    -0.004372942879662    -0.006641997042724
     0.002375133456989    -0.004876147432068    -0.003658769682210
   1  18
    -0.007491337187143     0.004977255896179     0.003278964772105
    -0.004689235329353     0.001015452087732     0.005371298904583
    -0.007533326455639     0.005092635422091     0.001569363040065
   1  19
    -0.007496681512486     0.004988267155817     0.003282304360245
    -0.004700778726934     0.001006561187344     0.005392620926472
    -0.007539255332735     0.005091761259225     0.001575628402423
   1  20
     0.005107490073208    -0.003457193399864    -0.006848176773286
     0.003867813895180    -0.004357421790892    -0.006635959312610
     0.002369619654691    -0.004868494540337    -0.003654556231593
   1  21
    -0.010595923945592     0.023818088426411     0.005795945862748
     0.015795200596827    -0.015568747852484    -0.017032206186127
    -0.007549144779912    -0.020490376860853    -0.002910109155778
   1  22
    -0.015940842085390     0.003638803433684     0.001253975027020
     0.024096429800954     0.002523128691268    -0.001087548435772
     0.024001611946208    -0.001579933312368     0.001476155536463
   1  23
    -0.010341108580161     0.007881150329256     0.021349651558552
    -0.003236060490289    -0.003719605478440    -0.022175569504260
     0.015821040807735    -0.014791403543010    -0.018436836828762
   1  24
     0.011826954902486    -0.004978889118513    -0.003694312747696
    -0.007433387690294    -0.000948687040651     0.000044918412031
    -0.000012799040260     0.000591861312981     0.017529485245395
   1  25
     0.013445843853044    -0.000157693863524    -0.005182805595690
     0.001783574297407     0.017102929862816     0.002578496290832
    -0.009536958834533     0.003061908505990     0.000812029379651
   1  26
    -0.913185806538133    -0.023678086068004     1.018849146451194
    -0.012250880703357     0.087510502264219     0.011505145487343
     1.015931843469091     0.016779061097622    -0.912640496880669
   1  27
     0.003492182331240     0.009243688196693    -0.001663587168590
     0.007380354577746     0.010168636443139     0.012259173798367
     0.014070917594490     0.002494553850934    -0.061466065114765
   1  28
     0.000244473171288     0.000719306322727     0.003736794471411
     0.013370179256108    -0.071119904838156    -0.001561374022123
     0.004372949013395     0.011275395664947     0.006031836400676
   1  29
    -0.909934904120361     1.021638565378423    -0.022239325579418
     1.019383004762659    -0.909064509509188     0.015112841631696
    -0.014931091950168     0.012223261217920     0.092113215114192
   1  30
     0.030718010262151    -0.017082597870085    -0.017366932086981
    -0.041503638594077    -0.886168305756508    -1.033543632695516
    -0.040334966014877    -1.034327912183036    -0.883595092361890
   2   1
    -1.163002334519409    -0.525135863298460    -0.566204123760591
    -0.525471287971918    -0.638663421292263    -0.008088355141527
    -0.566265477523825    -0.007286496954900    -0.687660714893890
   2   2
     6.144672876843357    -0.869012156369619    -0.741539099160481
    -0.856668857497566     6.070115558387229     0.819045716007451
    -0.740822541762685     0.792678573306298     6.142204494184102
   2   3
    -1.163093667720301    -0.525072318810151    -0.566249909259425
    -0.525529678103185    -0.638716749564016    -0.008087811098219
    -0.566280271451614    -0.007297752935151    -0.687675037995487
   2   4
    -0.107421781377234    -0.062056364803404    -0.058795738191105
    -0.062218762914716    -0.632189574390834     0.635178288014628
    -0.059117431997513     0.635999057495015    -0.629294102211677
   2   5
    -0.107375904599417    -0.061985030230811    -0.058837392012321
    -0.062149363804202    -0.632276930782056     0.635247439717734
    -0.059086370216232     0.635941260440148    -0.629268967222206
   2   6
     0.003287739180088     0.009326318358071    -0.001438530986082
     0.007781862481102     0.009637588240005     0.011812110212304
     0.014340500611374     0.002165948995365    -0.061736135632774
   2   7
    -0.913336542737460    -0.023612109080805     1.018992204119539
    -0.011848466915342     0.086873334301722     0.011212079722216
     1.016035000597875     0.016401347183144    -0.912664934309827
   2   8
     0.030785852702468    -0.016895755930582    -0.017209351752276
    -0.040850606803524    -0.886690277663901    -1.034032876474369
    -0.039981283994741    -1.034669596722234    -0.883882698241051
   2   9
    -0.909750275032223     1.021435732555422    -0.022231036861403
     1.019321893320483    -0.908869713471809     0.014509589809323
    -0.014697147364395     0.012063466530886     0.091728718552413
   2  10
     0.000063657476695     0.000902673422299     0.003851520033424
     0.013755061346477    -0.071530286629610    -0.002121572949109
     0.004620430116890     0.011029997956947     0.005671812399642
   2  11
     0.011907200787656    -0.005034436554941    -0.003689767182144
    -0.007475961541209    -0.000868273672674     0.000151491530100
    -0.000053637308975     0.000636013952715     0.017572950099092
   2  12
    -0.010332180193082     0.007843723876736     0.021369774613501
    -0.003387379778264    -0.003626114344695    -0.021989096526158
     0.015750059035901    -0.014743932550788    -0.018347691019616
   2  13
    -0.016014527397166     0.003666101397915     0.001276537097318
     0.023907836516506     0.002647646853081    -0.000959028064777
     0.023916426807824    -0.001526451259627     0.001533889719159
   2  14
    -0.010588331308835     0.023831321937876     0.005745879570441
     0.015634587574124    -0.015386725228154    -0.016933742999992
    -0.007627760973271    -0.020406274651917    -0.002859470986415
   2  15
     0.013534226285256    -0.000165964423129    -0.005249831573402
     0.001725054489178     0.017220979590986     0.002655400658084
    -0.009580553530073     0.003103584679839     0.000850801206666
   2  16
     0.005107490073208    -0.003457193399864    -0.006848176773286
     0.003867813895180    -0.004357421790892    -0.006635959312610
     0.002369619654691    -0.004868494540337    -0.003654556231593
   2  17
     0.001698099572709    -0.002129673356070    -0.003478345546012
    -0.002268657031452     0.018316871988848    -0.001185069326347
    -0.002655514581015     0.000234831291020     0.019083078853116
   2  18
     0.005117541412745    -0.003457849513396    -0.006864480345158
     0.003880150980932    -0.004372942879662    -0.006641997042724
     0.002375133456989    -0.004876147432068    -0.003658769682210
   2  19
    -0.007491337187143     0.004977255896179     0.003278964772105
    -0.004689235329353     0.001015452087732     0.005371298904583
    -0.007533326455639     0.005092635422091     0.001569363040065
   2  20
    -0.007496681512486     0.004988267155817     0.003282304360245
    -0.004700778726934     0.001006561187344     0.005392620926472
    -0.007539255332735     0.005091761259225     0.001575628402423
   2  21
     0.013445843853044    -0.000157693863524    -0.005182805595690
     0.001783574297407     0.017102929862816     0.002578496290832
    -0.009536958834533     0.003061908505990     0.000812029379651
   2  22
    -0.010595923945592     0.023818088426411     0.005795945862748
     0.015795200596827    -0.015568747852484    -0.017032206186127
    -0.007549144779912    -0.020490376860853    -0.002910109155778
   2  23
    -0.015940842085390     0.003638803433684     0.001253975027020
     0.024096429800954     0.002523128691268    -0.001087548435772
     0.024001611946208    -0.001579933312368     0.001476155536463
   2  24
    -0.010341108580161     0.007881150329256     0.021349651558552
    -0.003236060490289    -0.003719605478440    -0.022175569504260
     0.015821040807735    -0.014791403543010    -0.018436836828762
   2  25
     0.011826954902486    -0.004978889118513    -0.003694312747696
    -0.007433387690294    -0.000948687040651     0.000044918412031
    -0.000012799040260     0.000591861312981     0.017529485245395
   2  26
     0.030718010262151    -0.017082597870085    -0.017366932086981
    -0.041503638594077    -0.886168305756509    -1.033543632695516
    -0.040334966014877    -1.034327912183036    -0.883595092361890
   2  27
    -0.913185806538133    -0.023678086068004     1.018849146451194
    -0.012250880703357     0.087510502264219     0.011505145487343
     1.015931843469091     0.016779061097622    -0.912640496880669
   2  28
     0.003492182331240     0.009243688196693    -0.001663587168590
     0.007380354577746     0.010168636443139     0.012259173798367
     0.014070917594490     0.002494553850934    -0.061466065114765
   2  29
     0.000244473171288     0.000719306322727     0.003736794471411
     0.013370179256108    -0.071119904838156    -0.001561374022123
     0.004372949013395     0.011275395664947     0.006031836400676
   2  30
    -0.909934904120361     1.021638565378423    -0.022239325579418
     1.019383004762659    -0.909064509509188     0.015112841631696
    -0.014931091950168     0.012223261217920     0.092113215114192
   3   1
    -0.107375904599417    -0.061985030230811    -0.058837392012321
    -0.062149363804202    -0.632276930782056     0.635247439717734
    -0.059086370216232     0.635941260440148    -0.629268967222206
   3   2
    -1.163002334519409    -0.525135863298460    -0.566204123760591
    -0.525471287971918    -0.638663421292263    -0.008088355141527
    -0.566265477523825    -0.007286496954900    -0.687660714893890
   3   3
     6.144672876843357    -0.869012156369619    -0.741539099160481
    -0.856668857497566     6.070115558387229     0.819045716007451
    -0.740822541762685     0.792678573306298     6.142204494184102
   3   4
    -1.163093667720301    -0.525072318810151    -0.566249909259425
    -0.525529678103185    -0.638716749564016    -0.008087811098219
    -0.566280271451614    -0.007297752935151    -0.687675037995487
   3   5
    -0.107421781377234    -0.062056364803404    -0.058795738191105
    -0.062218762914716    -0.632189574390834     0.635178288014628
    -0.059117431997513     0.635999057495015    -0.629294102211677
   3   6
     0.000063657476695     0.000902673422299     0.003851520033424
     0.013755061346477    -0.071530286629610    -0.002121572949109
     0.004620430116890     0.011029997956947     0.005671812399642
   3   7
     0.003287739180088     0.009326318358071    -0.001438530986082
     0.007781862481102     0.009637588240005     0.011812110212304
     0.014340500611374     0.002165948995365    -0.061736135632774
   3   8
    -0.913336542737460    -0.023612109080805     1.018992204119539
    -0.011848466915342     0.086873334301722     0.011212079722216
     1.016035000597875     0.016401347183144    -0.912664934309827
   3   9
     0.030785852702468    -0.016895755930582    -0.017209351752276
    -0.040850606803524    -0.886690277663901    -1.034032876474369
    -0.039981283994741    -1.034669596722234    -0.883882698241051
   3  10
    -0.909750275032223     1.021435732555422    -0.022231036861403
     1.019321893320483    -0.908869713471809     0.014509589809323
    -0.014697147364395     0.012063466530886     0.091728718552413
   3  11
     0.013534226285256    -0.000165964423129    -0.005249831573402
     0.001725054489178     0.017220979590986     0.002655400658084
    -0.009580553530073     0.003103584679839     0.000850801206666
   3  12
     0.011907200787656    -0.005034436554941    -0.003689767182144
    -0.007475961541209    -0.000868273672674     0.000151491530100
    -0.000053637308975     0.000636013952715     0.017572950099092
   3  13
    -0.010332180193082     0.007843723876736     0.021369774613501
    -0.003387379778264    -0.003626114344695    -0.021989096526158
     0.015750059035901    -0.014743932550788    -0.018347691019616
   3  14
    -0.016014527397166     0.003666101397915     0.001276537097318
     0.023907836516506     0.002647646853081    -0.000959028064777
     0.023916426807824    -0.001526451259627     0.001533889719159
   3  15
    -0.010588331308835     0.023831321937876     0.005745879570441
     0.015634587574124    -0.015386725228154    -0.016933742999992
    -0.007627760973271    -0.020406274651917    -0.002859470986415
   3  16
    -0.007496681512486     0.004988267155817     0.003282304360245
    -0.004700778726934     0.001006561187344     0.005392620926472
    -0.007539255332735     0.005091761259225     0.001575628402423
   3  17
     0.005107490073208    -0.003457193399864    -0.006848176773286
     0.003867813895180    -0.004357421790892    -0.006635959312610
     0.002369619654691    -0.004868494540337    -0.003654556231593
   3  18
     0.001698099572709    -0.002129673356070    -0.003478345546012
    -0.002268657031452     0.018316871988848    -0.001185069326347
    -0.002655514581015     0.000234831291020     0.019083078853116
   3  19
     0.005117541412745    -0.003457849513396    -0.006864480345158
     0.003880150980932    -0.004372942879662    -0.006641997042724
     0.002375133456989    -0.004876147432068    -0.003658769682210
   3  20
    -0.007491337187143     0.004977255896179     0.003278964772105
    -0.004689235329353     0.001015452087732     0.005371298904583
    -0.007533326455639     0.005092635422091     0.001569363040065
   3  21
     0.011826954902486    -0.004978889118513    -0.003694312747696
    -0.007433387690294    -0.000948687040651     0.000044918412031
    -0.000012799040260     0.000591861312981     0.017529485245395
   3  22
     0.013445843853044    -0.000157693863524    -0.005182805595690
     0.001783574297407     0.017102929862816     0.002578496290832
    -0.009536958834533     0.003061908505990     0.000812029379651
   3  23
    -0.010595923945592     0.023818088426411     0.005795945862748
     0.015795200596827    -0.015568747852484    -0.017032206186127
    -0.007549144779912    -0.020490376860853    -0.002910109155778
   3  24
    -0.015940842085390     0.003638803433684     0.001253975027020
     0.024096429800954     0.002523128691268    -0.001087548435772
     0.024001611946208    -0.001579933312368     0.001476155536463
   3  25
    -0.010341108580161     0.007881150329256     0.021349651558552
    -0.003236060490289    -0.003719605478440    -0.022175569504260
     0.015821040807735    -0.014791403543010    -0.018436836828762
   3  26
    -0.909934904120361     1.021638565378423    -0.022239325579418
     1.019383004762659    -0.909064509509188     0.015112841631696
    -0.014931091950168     0.012223261217920     0.092113215114192
   3  27
     0.030718010262151    -0.017082597870085    -0.017366932086981
    -0.041503638594077    -0.886168305756509    -1.033543632695516
    -0.040334966014877    -1.034327912183036    -0.883595092361890
   3  28
    -0.913185806538133    -0.023678086068004     1.018849146451194
    -0.012250880703357     0.087510502264219     0.011505145487343
     1.015931843469091     0.016779061097622    -0.912640496880669
   3  29
     0.003492182331240     0.009243688196693    -0.001663587168590
     0.007380354577746     0.010168636443139     0.012259173798367
     0.014070917594490     0.002494553850934    -0.061466065114765
   3  30
     0.000244473171288     0.000719306322727     0.003736794471411
     0.013370179256108    -0.071119904838156    -0.001561374022123
     0.004372949013395     0.011275395664947     0.006031836400676
   4   1
    -0.107421781377234    -0.062056364803404    -0.058795738191105
    -0.062218762914716    -0.632189574390834     0.635178288014628
    -0.059117431997513     0.635999057495015    -0.629294102211677
   4   2
    -0.107375904599417    -0.061985030230811    -0.058837392012321
    -0.062149363804202    -0.632276930782056     0.635247439717734
    -0.059086370216232     0.635941260440148    -0.629268967222206
   4   3
    -1.163002334519409    -0.525135863298460    -0.566204123760591
    -0.525471287971918    -0.638663421292263    -0.008088355141527
    -0.566265477523825    -0.007286496954900    -0.687660714893890
   4   4
     6.144672876843357    -0.869012156369619    -0.741539099160481
    -0.856668857497566     6.070115558387229     0.819045716007451
    -0.740822541762685     0.792678573306298     6.142204494184102
   4   5
    -1.163093667720301    -0.525072318810151    -0.566249909259425
    -0.525529678103185    -0.638716749564016    -0.008087811098219
    -0.566280271451614    -0.007297752935151    -0.687675037995487
   4   6
    -0.909750275032223     1.021435732555422    -0.022231036861403
     1.019321893320483    -0.908869713471809     0.014509589809323
    -0.014697147364395     0.012063466530886     0.091728718552413
   4   7
     0.000063657476695     0.000902673422299     0.003851520033424
     0.013755061346477    -0.071530286629610    -0.002121572949109
     0.004620430116890     0.011029997956947     0.005671812399642
   4   8
     0.003287739180088     0.009326318358071    -0.001438530986082
     0.007781862481102     0.009637588240005     0.011812110212304
     0.014340500611374     0.002165948995365    -0.061736135632774
   4   9
    -0.913336542737460    -0.023612109080805     1.018992204119539
    -0.011848466915342     0.086873334301722     0.011212079722216
     1.016035000597875     0.016401347183144    -0.912664934309827
   4  10
     0.030785852702468    -0.016895755930582    -0.017209351752276
    -0.040850606803524    -0.886690277663901    -1.034032876474369
    -0.039981283994741    -1.034669596722234    -0.883882698241051
   4  11
    -0.010588331308835     0.023831321937876     0.005745879570441
     0.015634587574124    -0.015386725228154    -0.016933742999992
    -0.007627760973271    -0.020406274651917    -0.002859470986415
   4  12
     0.013534226285256    -0.000165964423129    -0.005249831573402
     0.001725054489178     0.017220979590986     0.002655400658084
    -0.009580553530073     0.003103584679839     0.000850801206666
   4  13
     0.011907200787656    -0.005034436554941    -0.003689767182144
    -0.007475961541209    -0.000868273672674     0.000151491530100
    -0.000053637308975     0.000636013952715     0.017572950099092
   4  14
    -0.010332180193082     0.007843723876736     0.021369774613501
    -0.003387379778264    -0.003626114344695    -0.021989096526158
     0.015750059035901    -0.014743932550788    -0.018347691019616
   4  15
    -0.016014527397166     0.003666101397915     0.001276537097318
     0.023907836516506     0.002647646853081    -0.000959028064777
     0.023916426807824    -0.001526451259627     0.001533889719159
   4  16
    -0.007491337187143     0.004977255896179     0.003278964772105
    -0.004689235329353     0.001015452087732     0.005371298904583
    -0.007533326455639     0.005092635422091     0.001569363040065
   4  17
    -0.007496681512486     0.004988267155817     0.003282304360245
    -0.004700778726934     0.001006561187344     0.005392620926472
    -0.007539255332735     0.005091761259225     0.001575628402423
   4  18
     0.005107490073208    -0.003457193399864    -0.006848176773286
     0.003867813895180    -0.004357421790892    -0.006635959312610
     0.002369619654691    -0.004868494540337    -0.003654556231593
   4  19
     0.001698099572709    -0.002129673356070    -0.003478345546012
    -0.002268657031452     0.018316871988848    -0.001185069326347
    -0.002655514581015     0.000234831291020     0.019083078853116
   4  20
     0.005117541412745    -0.003457849513396    -0.006864480345158
     0.003880150980932    -0.004372942879662    -0.006641997042724
     0.002375133456989    -0.004876147432068    -0.003658769682210
   4  21
    -0.010341108580161     0.007881150329256     0.021349651558552
    -0.003236060490289    -0.003719605478440    -0.022175569504260
     0.015821040807735    -0.014791403543010    -0.018436836828762
   4  22
     0.011826954902486    -0.004978889118513    -0.003694312747696
    -0.007433387690294    -0.000948687040651     0.000044918412031
    -0.000012799040260     0.000591861312981     0.017529485245395
   4  23
     0.013445843853044    -0.000157693863524    -0.005182805595690
     0.001783574297407     0.017102929862816     0.002578496290832
    -0.009536958834533     0.003061908505990     0.000812029379651
   4  24
    -0.010595923945592     0.023818088426411     0.005795945862748
     0.015795200596827    -0.015568747852484    -0.017032206186127
    -0.007549144779912    -0.020490376860853    -0.002910109155778
   4  25
    -0.015940842085390     0.003638803433684     0.001253975027020
     0.024096429800954     0.002523128691268    -0.001087548435772
     0.024001611946208    -0.001579933312368     0.001476155536463
   4  26
     0.000244473171288     0.000719306322727     0.003736794471411
     0.013370179256108    -0.071119904838156    -0.001561374022123
     0.004372949013395     0.011275395664947     0.006031836400676
   4  27
    -0.909934904120361     1.021638565378423    -0.022239325579418
     1.019383004762659    -0.909064509509188     0.015112841631696
    -0.014931091950168     0.012223261217920     0.092113215114192
   4  28
     0.030718010262151    -0.017082597870085    -0.017366932086981
    -0.041503638594077    -0.886168305756509    -1.033543632695516
    -0.040334966014877    -1.034327912183036    -0.883595092361890
   4  29
    -0.913185806538133    -0.023678086068004     1.018849146451194
    -0.012250880703357     0.087510502264219     0.011505145487343
     1.015931843469091     0.016779061097622    -0.912640496880669
   4  30
     0.003492182331240     0.009243688196693    -0.001663587168590
     0.007380354577746     0.010168636443139     0.012259173798367
     0.014070917594490     0.002494553850934    -0.061466065114765
   5   1
    -1.163093667720301    -0.525072318810151    -0.566249909259425
    -0.525529678103185    -0.638716749564016    -0.008087811098219
    -0.566280271451614    -0.007297752935151    -0.687675037995487
   5   2
    -0.107421781377234    -0.062056364803404    -0.058795738191105
    -0.062218762914716    -0.632189574390834     0.635178288014628
    -0.059117431997513     0.635999057495015    -0.629294102211677
   5   3
    -0.107375904599417    -0.061985030230811    -0.058837392012321
    -0.062149363804202    -0.632276930782056     0.635247439717734
    -0.059086370216232     0.635941260440148    -0.629268967222206
   5   4
    -1.163002334519409    -0.525135863298460    -0.566204123760591
    -0.525471287971918    -0.638663421292263    -0.008088355141527
    -0.566265477523825    -0.007286496954900    -0.687660714893890
   5   5
     6.144672876843357    -0.869012156369619    -0.741539099160481
    -0.856668857497566     6.070115558387229     0.819045716007451
    -0.740822541762685     0.792678573306298     6.142204494184102
   5   6
     0.030785852702468    -0.016895755930582    -0.017209351752276
    -0.040850606803524    -0.886690277663901    -1.034032876474369
    -0.039981283994741    -1.034669596722234    -0.883882698241051
   5   7
    -0.909750275032223     1.021435732555422    -0.022231036861403
     1.019321893320483    -0.908869713471809     0.014509589809323
    -0.014697147364395     0.012063466530886     0.091728718552413
   5   8
     0.000063657476695     0.000902673422299     0.003851520033424
     0.013755061346477    -0.071530286629610    -0.002121572949109
     0.004620430116890     0.011029997956947     0.005671812399642
   5   9
     0.003287739180088     0.009326318358071    -0.001438530986082
     0.007781862481102     0.009637588240005     0.011812110212304
     0.014340500611374     0.002165948995365    -0.061736135632774
   5  10
    -0.913336542737460    -0.023612109080805     1.018992204119539
    -0.011848466915342     0.086873334301722     0.011212079722216
     1.016035000597875     0.016401347183144    -0.912664934309827
   5  11
    -0.016014527397166     0.003666101397915     0.001276537097318
     0.023907836516506     0.002647646853081    -0.000959028064777
     0.023916426807824    -0.001526451259627     0.001533889719159
   5  12
    -0.010588331308835     0.023831321937876     0.005745879570441
     0.015634587574124    -0.015386725228154    -0.016933742999992
    -0.007627760973271    -0.020406274651917    -0.002859470986415
   5  13
     0.013534226285256    -0.000165964423129    -0.005249831573402
     0.001725054489178     0.017220979590986     0.002655400658084
    -0.009580553530073     0.003103584679839     0.000850801206666
   5  14
     0.011907200787656    -0.005034436554941    -0.003689767182144
    -0.007475961541209    -0.000868273672674     0.000151491530100
    -0.000053637308975     0.000636013952715     0.017572950099092
   5  15
    -0.010332180193082     0.007843723876736     0.021369774613501
    -0.003387379778264    -0.003626114344695    -0.021989096526158
     0.015750059035901    -0.014743932550788    -0.018347691019616
   5  16
     0.005117541412745    -0.003457849513396    -0.006864480345158
     0.003880150980932    -0.004372942879662    -0.006641997042724
     0.002375133456989    -0.004876147432068    -0.003658769682210
   5  17
    -0.007491337187143     0.004977255896179     0.003278964772105
    -0.004689235329353     0.001015452087732     0.005371298904583
    -0.007533326455639     0.005092635422091     0.001569363040065
   5  18
    -0.007496681512486     0.004988267155817     0.003282304360245
    -0.004700778726934     0.001006561187344     0.005392620926472
    -0.007539255332735     0.005091761259225     0.001575628402423
   5  19
     0.005107490073208    -0.003457193399864    -0.006848176773286
     0.003867813895180    -0.004357421790892    -0.006635959312610
     0.002369619654691    -0.004868494540337    -0.003654556231593
   5  20
     0.001698099572709    -0.002129673356070    -0.003478345546012
    -0.002268657031452     0.018316871988848    -0.001185069326347
    -0.002655514581015     0.000234831291020     0.019083078853116
   5  21
    -0.015940842085390     0.003638803433684     0.001253975027020
     0.024096429800954     0.002523128691268    -0.001087548435772
     0.024001611946208    -0.001579933312368     0.001476155536463
   5  22
    -0.010341108580161     0.007881150329256     0.021349651558552
    -0.003236060490289    -0.003719605478440    -0.022175569504260
     0.015821040807735    -0.014791403543010    -0.018436836828762
   5  23
     0.011826954902486    -0.004978889118513    -0.003694312747696
    -0.007433387690294    -0.000948687040651     0.000044918412031