30
Lattice="-4.108046990665182 -2.0577314896544845 -2.0471597826838397 2.0474128401055713 -4.102291556847904 6.141524190761313 -8.200797153250369 8.199779984759905 8.189236378733671" Properties=Z:I:1:pos:R:3:vasp_force:R:3 uuid=3eeacf15-4fa9-473c-ba48-d574d73450b8 vasp_virial="-0.04789031442151016 -0.08112217431416471 0.16327799901379308 -0.08112217431416471 -0.030201972200264403 -0.021861705652555026 0.16327799901379308 -0.021861705652555026 0.12849889370039766" vasp_energy=-94.68201571 pbc="T T T"
      46      -4.11361125      -0.00933525      -0.00393076       0.04351100       0.02107300       0.02233500 
      46      -0.00268574      -2.05243870       6.14165434      -0.01483400      -0.00732800      -0.00762200 
      46      -2.05538710      -2.05507299       4.09448559      -0.00139400      -0.00003200      -0.00033000 
      46      -4.10808847      -2.05770727       2.04731684      -0.00167600      -0.00080000      -0.00042100 
      46      -2.05274284      -0.00261007       2.04730787      -0.01329100      -0.00640300      -0.00721600 
      47      -6.11617642      -0.04962810       2.00512265      -0.00553000       0.00083800       0.00658300 
      47      -2.01341796      -2.09682245       8.14663788      -0.00220600      -0.00733300      -0.00614500 
      47      -4.06611932      -2.09945673       6.09946913      -0.00549200       0.00537100       0.00183500 
      47      -2.01077369      -0.04435953       6.09946016      -0.00204000       0.00029700       0.00174400 
      47      -4.06347506      -0.04699381       4.05229141      -0.00172600       0.00071100       0.00174300 
      47      -6.13167563       2.02021230       4.06980954      -0.00115300       0.00115700       0.00000600 
      47      -2.02891717      -0.02698205      10.21132476      -0.00098200       0.00113800      -0.00010400 
      47      -4.08161853      -0.02961633       8.16415601      -0.00103600       0.00132900       0.00005600 
      47      -6.13431990      -0.03225062       6.11698726      -0.00095000       0.00131600       0.00029300 
      47      -4.07897427       2.02284659       6.11697829      -0.00149400       0.00145400      -0.00003300 
      47      -6.15847092      -0.00756777      10.23626268      -0.00007000       0.00011600       0.00000500 
      47      -4.10312529       2.04752944      10.23625371      -0.00052100      -0.00042400      -0.00015000 
      47      -6.15582666       2.04489515       8.18908496      -0.00001700       0.00041500      -0.00004900 
      47      -8.20852802       2.04226087       6.14191621      -0.00033100      -0.00017600       0.00008700 
      47      -6.15318240       4.09735807       6.14190724       0.00052900       0.00039900      -0.00011400 
      47     -10.28283722       4.11683117       6.16672441       0.00111100      -0.00152200      -0.00017500 
      47      -8.22749160       6.17192837       6.16671544       0.00133000      -0.00138100       0.00009400 
      47      -8.23278012       2.06700253      10.26107088       0.00132500      -0.00143300      -0.00007600 
      47      -6.17743449       4.12209974      10.26106191       0.00185800      -0.00179500       0.00003400 
      47      -8.23013586       4.11946545       8.21389316       0.00134700      -0.00141600      -0.00043300 
      47      -0.04739503      -4.06312528       4.13661951      -0.00124200      -0.00026100       0.00278100 
      47      -2.10009639      -4.06575957       2.08945076       0.00200100      -0.00031000      -0.00209900 
      47      -0.04475076      -2.01066236       2.08944179       0.00213200      -0.00058400      -0.00162300 
      47      -2.09745213      -2.01329665       0.04227304      -0.00117400       0.00409300      -0.00127400 
      47      -0.04210650       0.04180056       0.04226407       0.00201400      -0.00850700      -0.00973200 
30
Lattice="-4.108046990665182 -2.0577314896544845 -2.0471597826838397 2.0474128401055713 -4.102291556847904 6.141524190761313 -8.200797153250369 8.199779984759905 8.189236378733671" Properties=Z:I:1:pos:R:3:vasp_force:R:3 uuid=53603da2-af11-4907-9100-8005bcffdcbf vasp_virial="-0.05287121721646286 -0.07809551677922916 0.16052267470504164 -0.07809551677922916 -0.036872247343959164 -0.021564531166734242 0.16052267470504164 -0.021564531166734242 0.12977803605240887" vasp_energy=-94.68199327 pbc="T T T"
      46      -4.10544420      -0.00524435       0.00013912       0.00578400      -0.00033500      -0.00469000 
      46      -0.00268574      -2.05243870       6.14165434      -0.00091500      -0.00050300      -0.00044400 
      46      -2.05538710      -2.05507299       4.09448559       0.00001500       0.00090400       0.00009600 
      46      -4.10808847      -2.05770727       2.04731684      -0.00825300       0.00733100       0.00061400 
      46      -2.05274284      -0.00261007       2.04730787       0.00070300      -0.00291400      -0.00160400 
      47      -6.11884784      -0.04427552       1.99710933       0.01288500      -0.02916500       0.04634900 
      47      -2.01341796      -2.09682245       8.14663788      -0.00852800       0.00113100      -0.00506900 
      47      -4.06611932      -2.09945673       6.09946913      -0.00181200       0.01175200      -0.00898200 
      47      -2.01077369      -0.04435953       6.09946016      -0.00178100       0.01082900      -0.00861100 
      47      -4.06347506      -0.04699381       4.05229141      -0.00748600       0.00142600      -0.00462300 
      47      -6.13167563       2.02021230       4.06980954      -0.00095300      -0.00110300      -0.00115500 
      47      -2.02891717      -0.02698205      10.21132476      -0.00634500       0.00619600       0.00094800 
      47      -4.08161853      -0.02961633       8.16415601      -0.00104400       0.00184600      -0.00010900 
      47      -6.13431990      -0.03225062       6.11698726      -0.00108900       0.00149300      -0.00034900 
      47      -4.07897427       2.02284659       6.11697829       0.00215300       0.00069700      -0.00321500 
      47      -6.15847092      -0.00756777      10.23626268      -0.00011200       0.00009400      -0.00006700 
      47      -4.10312529       2.04752944      10.23625371      -0.00055000      -0.00044600      -0.00003200 
      47      -6.15582666       2.04489515       8.18908496       0.00003300       0.00034700       0.00003300 
      47      -8.20852802       2.04226087       6.14191621      -0.00012700      -0.00029900      -0.00003800 
      47      -6.15318240       4.09735807       6.14190724       0.00043100       0.00052500       0.00001800 
      47     -10.28283722       4.11683117       6.16672441       0.00115900      -0.00164600      -0.00004600 
      47      -8.22749160       6.17192837       6.16671544       0.00118000      -0.00138400       0.00010100 
      47      -8.23278012       2.06700253      10.26107088       0.00129100      -0.00136400      -0.00011900 
      47      -6.17743449       4.12209974      10.26106191       0.00187800      -0.00169600      -0.00001400 
      47      -8.23013586       4.11946545       8.21389316       0.00126700      -0.00152300      -0.00043200 
      47      -0.04739503      -4.06312528       4.13661951       0.00235100      -0.00051400      -0.00192600 
      47      -2.10009639      -4.06575957       2.08945076       0.00160800      -0.00020800      -0.00184900 
      47      -0.04475076      -2.01066236       2.08944179       0.00198800      -0.00028600      -0.00159600 
      47      -2.09745213      -2.01329665       0.04227304       0.00214400      -0.00065800      -0.00148900 
      47      -0.04210650       0.04180056       0.04226407       0.00212700      -0.00052800      -0.00169900 
30
Lattice="-4.108046990665182 -2.0577314896544845 -2.0471597826838397 2.0474128401055713 -4.102291556847904 6.141524190761313 -8.200797153250369 8.199779984759905 8.189236378733671" Properties=Z:I:1:pos:R:3:vasp_force:R:3 uuid=41fe892a-debb-43f7-8ffb-a97b2d4bf0a6 vasp_virial="-0.06452885547001946 -0.07660964435012522 0.16783252102474203 -0.07660964435012522 -0.046972949704411224 -0.02592201357295421 0.16783252102474203 -0.02592201357295421 0.11235133658498357" vasp_energy=-94.68200839 pbc="T T T"
      46      -4.10544420      -0.00524435       0.00013912      -0.01093900      -0.00052800       0.01087300 
      46      -0.00268574      -2.05243870       6.14165434      -0.00091500      -0.00065900       0.00049100 
      46      -2.05538710      -2.05507299       4.09448559      -0.00006100       0.00099400       0.00007200 
      46      -4.10808847      -2.05770727       2.04731684      -0.01112100       0.01055300      -0.00060200 
      46      -2.05274284      -0.00261007       2.04730787       0.00098700       0.01136300       0.01069300 
      47      -6.12195288      -0.04385236       2.01089097       0.03191900      -0.03357400      -0.03214100 
      47      -2.01341796      -2.09682245       8.14663788      -0.00074600      -0.00109000       0.00026100 
      47      -4.06611932      -2.09945673       6.09946913      -0.00128500      -0.00018200       0.00097500 
      47      -2.01077369      -0.04435953       6.09946016      -0.00120900      -0.00005200       0.00085000 
      47      -4.06347506      -0.04699381       4.05229141      -0.00050800      -0.00086600       0.00032400 
      47      -6.13167563       2.02021230       4.06980954      -0.00085000       0.00900800       0.00782000 
      47      -2.02891717      -0.02698205      10.21132476      -0.00887100       0.00908200      -0.00061200 
      47      -4.08161853      -0.02961633       8.16415601      -0.00110200       0.00165700       0.00003600 
      47      -6.13431990      -0.03225062       6.11698726      -0.00115500       0.00115100       0.00069400 
      47      -4.07897427       2.02284659       6.11697829      -0.00937200       0.00100200       0.00786700 
      47      -6.15847092      -0.00756777      10.23626268      -0.00018200       0.00046500       0.00017100 
      47      -4.10312529       2.04752944      10.23625371      -0.00056500      -0.00046800      -0.00010700 
      47      -6.15582666       2.04489515       8.18908496       0.00013600       0.00030500      -0.00022100 
      47      -8.20852802       2.04226087       6.14191621      -0.00034700      -0.00003800       0.00042500 
      47      -6.15318240       4.09735807       6.14190724       0.00010100       0.00057400       0.00012200 
      47     -10.28283722       4.11683117       6.16672441       0.00117900      -0.00154500      -0.00012200 
      47      -8.22749160       6.17192837       6.16671544       0.00129200      -0.00134700       0.00006100 
      47      -8.23278012       2.06700253      10.26107088       0.00127100      -0.00135500      -0.00007900 
      47      -6.17743449       4.12209974      10.26106191       0.00169400      -0.00177800       0.00004500 
      47      -8.23013586       4.11946545       8.21389316       0.00131300      -0.00147100      -0.00033800 
      47      -0.04739503      -4.06312528       4.13661951       0.00186000      -0.00055700      -0.00154200 
      47      -2.10009639      -4.06575957       2.08945076       0.00160700      -0.00012400      -0.00195100 
      47      -0.04475076      -2.01066236       2.08944179       0.00194200      -0.00006800      -0.00157300 
      47      -2.09745213      -2.01329665       0.04227304       0.00196000      -0.00015000      -0.00112000 
      47      -0.04210650       0.04180056       0.04226407       0.00196600      -0.00030200      -0.00137000 
30
Lattice="-4.108046990665182 -2.0577314896544845 -2.0471597826838397 2.0474128401055713 -4.102291556847904 6.141524190761313 -8.200797153250369 8.199779984759905 8.189236378733671" Properties=Z:I:1:pos:R:3:vasp_force:R:3 uuid=12bfe0df-2fcc-4ccd-babe-e0d5395ac7b1 vasp_virial="-0.03569323987303975 -0.08896499661386975 0.1575993822086524 -0.08896499661386975 -0.018676770402345326 -0.017717413638336926 0.1575993822086524 -0.017717413638336926 0.14165855517033107" vasp_energy=-94.68197138 pbc="T T T"
      46      -4.10544420      -0.00524435       0.00013912       0.01111300       0.00074600      -0.01125400 
      46      -0.00268574      -2.05243870       6.14165434      -0.00085300      -0.00049600      -0.00041400 
      46      -2.05538710      -2.05507299       4.09448559      -0.00000200      -0.00002200       0.00016300 
      46      -4.10808847      -2.05770727       2.04731684       0.01094300      -0.01156800       0.00072600 
      46      -2.05274284      -0.00261007       2.04730787       0.00024700      -0.01034400      -0.01103300 
      47      -6.11039997      -0.05540384       1.99935434      -0.03611300       0.03452200       0.03586600 
      47      -2.01341796      -2.09682245       8.14663788      -0.00345200       0.00213700       0.00319900 
      47      -4.06611932      -2.09945673       6.09946913      -0.00307400       0.00150100       0.00221000 
      47      -2.01077369      -0.04435953       6.09946016      -0.00302700       0.00116400       0.00252000 
      47      -4.06347506      -0.04699381       4.05229141      -0.00318500       0.00208100       0.00356400 
      47      -6.13167563       2.02021230       4.06980954      -0.00134200      -0.00634300      -0.00750700 
      47      -2.02891717      -0.02698205      10.21132476       0.00645900      -0.00654700       0.00032800 
      47      -4.08161853      -0.02961633       8.16415601      -0.00086600       0.00091000       0.00014800 
      47      -6.13431990      -0.03225062       6.11698726      -0.00090900       0.00132700      -0.00004900 
      47      -4.07897427       2.02284659       6.11697829       0.00592600       0.00195000      -0.00769900 
      47      -6.15847092      -0.00756777      10.23626268       0.00004100      -0.00033100      -0.00023900 
      47      -4.10312529       2.04752944      10.23625371      -0.00062700      -0.00022800       0.00001600 
      47      -6.15582666       2.04489515       8.18908496       0.00003600       0.00041300       0.00002800 
      47      -8.20852802       2.04226087       6.14191621      -0.00010700      -0.00042500      -0.00035000 
      47      -6.15318240       4.09735807       6.14190724       0.00081100       0.00038000      -0.00014200 
      47     -10.28283722       4.11683117       6.16672441       0.00112200      -0.00156300      -0.00014000 
      47      -8.22749160       6.17192837       6.16671544       0.00121300      -0.00145300       0.00012800 
      47      -8.23278012       2.06700253      10.26107088       0.00141800      -0.00146200      -0.00006700 
      47      -6.17743449       4.12209974      10.26106191       0.00186800      -0.00169900      -0.00003600 
      47      -8.23013586       4.11946545       8.21389316       0.00120700      -0.00149300      -0.00045200 
      47      -0.04739503      -4.06312528       4.13661951       0.00239100      -0.00038700      -0.00212800 
      47      -2.10009639      -4.06575957       2.08945076       0.00214300      -0.00072600      -0.00179900 
      47      -0.04475076      -2.01066236       2.08944179       0.00215000      -0.00059700      -0.00175200 
      47      -2.09745213      -2.01329665       0.04227304       0.00232400      -0.00093200      -0.00190900 
      47      -0.04210650       0.04180056       0.04226407       0.00214400      -0.00051300      -0.00192400 
30
Lattice="-4.108046990665182 -2.0577314896544845 -2.0471597826838397 2.0474128401055713 -4.102291556847904 6.141524190761313 -8.200797153250369 8.199779984759905 8.189236378733671" Properties=Z:I:1:pos:R:3:vasp_force:R:3 uuid=6db2fe53-68f0-41ec-bc8f-0352d6003fa3 vasp_virial="-0.04818748890733095 -0.08100911880325465 0.16393695113452608 -0.08100911880325465 -0.02990479771444362 -0.020992793297274694 0.16393695113452608 -0.020992793297274694 0.12909324267203923" vasp_energy=-94.6820277 pbc="T T T"
      46      -4.10544420      -0.00524435       0.00013912      -0.00007800      -0.00005600       0.00000000 
      46      -0.00268574      -2.05243870       6.14165434      -0.00080100      -0.00065000       0.00009000 
      46      -2.05538710      -2.05507299       4.09448559       0.00007800       0.00057200       0.00003300 
      46      -4.10808847      -2.05770727       2.04731684      -0.00025600      -0.00029500      -0.00014900 
      46      -2.05274284      -0.00261007       2.04730787       0.00055900       0.00092500       0.00022300 
      47      -6.11617642      -0.04962810       2.00512265      -0.00155200      -0.00477200      -0.00350000 
      47      -2.01341796      -2.09682245       8.14663788      -0.00442000       0.00098500       0.00455800 
      47      -4.06611932      -2.09945673       6.09946913      -0.00230700       0.00070900       0.00135200 
      47      -2.01077369      -0.04435953       6.09946016      -0.00222700       0.00033400       0.00170400 
      47      -4.06347506      -0.04699381       4.05229141      -0.00413900       0.00344800       0.00238700 
      47      -6.13984268       2.01612141       4.06573966       0.04009900       0.02134800       0.02152700 
      47      -2.02891717      -0.02698205      10.21132476      -0.01869800      -0.00720600      -0.00920100 
      47      -4.08161853      -0.02961633       8.16415601      -0.00000800       0.00162200       0.00048000 
      47      -6.13431990      -0.03225062       6.11698726      -0.00005400       0.00157600       0.00069700 
      47      -4.07897427       2.02284659       6.11697829      -0.01920400      -0.00719800      -0.00876200 
      47      -6.15847092      -0.00756777      10.23626268      -0.00207900       0.00293700       0.00040600 
      47      -4.10312529       2.04752944      10.23625371      -0.00075500      -0.00061400      -0.00001200 
      47      -6.15582666       2.04489515       8.18908496      -0.00007000       0.00042100      -0.00040000 
      47      -8.20852802       2.04226087       6.14191621      -0.00228500       0.00022100       0.00289700 
      47      -6.15318240       4.09735807       6.14190724       0.00096100      -0.00451300      -0.00501400 
      47     -10.28283722       4.11683117       6.16672441       0.00093000      -0.00154700      -0.00005400 
      47      -8.22749160       6.17192837       6.16671544       0.00139800      -0.00144700      -0.00000300 
      47      -8.23278012       2.06700253      10.26107088       0.00133800      -0.00134900      -0.00010700 
      47      -6.17743449       4.12209974      10.26106191       0.00181400      -0.00176500       0.00001900 
      47      -8.23013586       4.11946545       8.21389316       0.00147900      -0.00146800      -0.00047500 
      47      -0.04739503      -4.06312528       4.13661951       0.00213800      -0.00039600      -0.00186300 
      47      -2.10009639      -4.06575957       2.08945076       0.00186100      -0.00043700      -0.00178800 
      47      -0.04475076      -2.01066236       2.08944179       0.00201700      -0.00042300      -0.00176200 
      47      -2.09745213      -2.01329665       0.04227304       0.00224800      -0.00050100      -0.00153600 
      47      -0.04210650       0.04180056       0.04226407       0.00201200      -0.00046100      -0.00174700 
30
Lattice="-4.108046990665182 -2.0577314896544845 -2.0471597826838397 2.0474128401055713 -4.102291556847904 6.141524190761313 -8.200797153250369 8.199779984759905 8.189236378733671" Properties=Z:I:1:pos:R:3:vasp_force:R:3 uuid=f238e39c-c3da-411e-b9f8-679f33578001 vasp_virial="-0.04761252088041682 -0.08251760233454059 0.16306803877924575 -0.08251760233454059 -0.031067654398090165 -0.02259495139474326 0.16306803877924575 -0.02259495139474326 0.1283212350403961" vasp_energy=-94.68202383 pbc="T T T"
      46      -4.10544420      -0.00524435       0.00013912      -0.00017400       0.00019100       0.00001500 
      46      -0.00268574      -2.05243870       6.14165434      -0.00095000      -0.00053400      -0.00006300 
      46      -2.05538710      -2.05507299       4.09448559      -0.00012300       0.00036700       0.00015600 
      46      -4.10808847      -2.05770727       2.04731684      -0.00034700      -0.00029400       0.00016200 
      46      -2.05274284      -0.00261007       2.04730787       0.00075600       0.00051100      -0.00017300 
      47      -6.11617642      -0.04962810       2.00512265      -0.00271400       0.00582300       0.00711800 
      47      -2.01341796      -2.09682245       8.14663788       0.00023400       0.00006200      -0.00121100 
      47      -4.06611932      -2.09945673       6.09946913      -0.00203600       0.00062200       0.00175700 
      47      -2.01077369      -0.04435953       6.09946016      -0.00199300       0.00073000       0.00165400 
      47      -4.06347506      -0.04699381       4.05229141       0.00045900      -0.00231900       0.00147800 
      47      -6.12350859       2.02430320       4.07387942      -0.04239400      -0.01888100      -0.02052600 
      47      -2.02891717      -0.02698205      10.21132476       0.01660000       0.00984400       0.00848000 
      47      -4.08161853      -0.02961633       8.16415601      -0.00194800       0.00091200      -0.00030900 
      47      -6.13431990      -0.03225062       6.11698726      -0.00200400       0.00090900      -0.00011500 
      47      -4.07897427       2.02284659       6.11697829       0.01609400       0.00974800       0.00902200 
      47      -6.15847092      -0.00756777      10.23626268       0.00195300      -0.00278700      -0.00050500 
      47      -4.10312529       2.04752944      10.23625371      -0.00042300      -0.00010700      -0.00012600 
      47      -6.15582666       2.04489515       8.18908496       0.00025700       0.00027500       0.00015800 
      47      -8.20852802       2.04226087       6.14191621       0.00184700      -0.00069100      -0.00283100 
      47      -6.15318240       4.09735807       6.14190724      -0.00008500       0.00558000       0.00508400 
      47     -10.28283722       4.11683117       6.16672441       0.00139500      -0.00158400      -0.00025400 
      47      -8.22749160       6.17192837       6.16671544       0.00112200      -0.00138200       0.00014100 
      47      -8.23278012       2.06700253      10.26107088       0.00136900      -0.00149000      -0.00009200 
      47      -6.17743449       4.12209974      10.26106191       0.00176900      -0.00174100      -0.00005700 
      47      -8.23013586       4.11946545       8.21389316       0.00105700      -0.00152200      -0.00036600 
      47      -0.04739503      -4.06312528       4.13661951       0.00212600      -0.00056800      -0.00184900 
      47      -2.10009639      -4.06575957       2.08945076       0.00190100      -0.00043200      -0.00200700 
      47      -0.04475076      -2.01066236       2.08944179       0.00209200      -0.00026500      -0.00160700 
      47      -2.09745213      -2.01329665       0.04227304       0.00204900      -0.00060100      -0.00153800 
      47      -0.04210650       0.04180056       0.04226407       0.00211400      -0.00037600      -0.00159300 
30
Lattice="-4.108046990665182 -2.0577314896544845 -2.0471597826838397 2.0474128401055713 -4.102291556847904 6.141524190761313 -8.200797153250369 8.199779984759905 8.189236378733671" Properties=Z:I:1:pos:R:3:vasp_force:R:3 uuid=5582522f-15dc-457d-8291-556b756d27ae vasp_virial="-0.04889489338988259 -0.08283092760763422 0.1634653481461583 -0.08283092760763422 -0.031129027389727063 -0.02321837178347599 0.1634653481461583 -0.02321837178347599 0.127571838510935" vasp_energy=-94.68201387 pbc="T T T"
      46      -4.10544420      -0.00524435       0.00013912      -0.00023600       0.00020700       0.00004200 
      46      -0.00268574      -2.05243870       6.14165434      -0.00091200      -0.00060200      -0.00011800 
      46      -2.05538710      -2.05507299       4.09448559      -0.00002600       0.00051200       0.00013500 
      46      -4.10808847      -2.05770727       2.04731684      -0.00020100      -0.00031200      -0.00005200 
      46      -2.05274284      -0.00261007       2.04730787       0.00070200       0.00065200      -0.00005100 
      47      -6.11617642      -0.04962810       2.00512265      -0.00232100       0.00288400       0.00304600 
      47      -2.01341796      -2.09682245       8.14663788      -0.00581700       0.00130500       0.00481900 
      47      -4.06611932      -2.09945673       6.09946913      -0.00219300       0.00044500       0.00227800 
      47      -2.01077369      -0.04435953       6.09946016      -0.00200700      -0.00004200       0.00185700 
      47      -4.06347506      -0.04699381       4.05229141       0.00352200      -0.00456000       0.00082100 
      47      -6.12900421       2.01485972       4.07782286      -0.01529800       0.02899900      -0.04066300 
      47      -2.02891717      -0.02698205      10.21132476       0.00478300       0.00041000       0.00632700 
      47      -4.08161853      -0.02961633       8.16415601      -0.00130200      -0.00902900       0.01011800 
      47      -6.13431990      -0.03225062       6.11698726      -0.00134900      -0.00956600       0.01079300 
      47      -4.07897427       2.02284659       6.11697829       0.00456100       0.00079200       0.00657000 
      47      -6.15847092      -0.00756777      10.23626268       0.00492400      -0.00467200      -0.00118900 
      47      -4.10312529       2.04752944      10.23625371      -0.00054100      -0.00101800       0.00011700 
      47      -6.15582666       2.04489515       8.18908496       0.00017400       0.00012500       0.00069300 
      47      -8.20852802       2.04226087       6.14191621      -0.00395100       0.00057200       0.00293900 
      47      -6.15318240       4.09735807       6.14190724       0.00030300       0.00277500       0.00093800 
      47     -10.28283722       4.11683117       6.16672441       0.00117500      -0.00164100      -0.00014300 
      47      -8.22749160       6.17192837       6.16671544       0.00129500      -0.00145900       0.00004300 
      47      -8.23278012       2.06700253      10.26107088       0.00136000      -0.00133500      -0.00009700 
      47      -6.17743449       4.12209974      10.26106191       0.00180900      -0.00176800      -0.00016100 
      47      -8.23013586       4.11946545       8.21389316       0.00119500      -0.00140100      -0.00037800 
      47      -0.04739503      -4.06312528       4.13661951       0.00218800      -0.00057000      -0.00183800 
      47      -2.10009639      -4.06575957       2.08945076       0.00182800      -0.00047400      -0.00189000 
      47      -0.04475076      -2.01066236       2.08944179       0.00206400      -0.00030200      -0.00164800 
      47      -2.09745213      -2.01329665       0.04227304       0.00213100      -0.00048600      -0.00162900 
      47      -0.04210650       0.04180056       0.04226407       0.00213900      -0.00044200      -0.00167900 
30
Lattice="-4.108046990665182 -2.0577314896544845 -2.0471597826838397 2.0474128401055713 -4.102291556847904 6.141524190761313 -8.200797153250369 8.199779984759905 8.189236378733671" Properties=Z:I:1:pos:R:3:vasp_force:R:3 uuid=cf8986ff-9287-4d0a-899a-6477285e9d71 vasp_virial="-0.05290028863355402 -0.08152917415344102 0.16359778460179583 -0.08152917415344102 -0.035470359008674165 -0.021855245337645875 0.16359778460179583 -0.021855245337645875 0.12435460168617958" vasp_energy=-94.68202564 pbc="T T T"
      46      -4.10544420      -0.00524435       0.00013912      -0.00001100      -0.00008100      -0.00002300 
      46      -0.00268574      -2.05243870       6.14165434      -0.00083100      -0.00058800       0.00014900 
      46      -2.05538710      -2.05507299       4.09448559      -0.00001200       0.00042100       0.00005500 
      46      -4.10808847      -2.05770727       2.04731684      -0.00039600      -0.00028500       0.00006500 
      46      -2.05274284      -0.00261007       2.04730787       0.00062100       0.00078200       0.00010400 
      47      -6.11617642      -0.04962810       2.00512265      -0.00197900      -0.00170600       0.00073400 
      47      -2.01341796      -2.09682245       8.14663788       0.00170400      -0.00027600      -0.00145900 
      47      -4.06611932      -2.09945673       6.09946913      -0.00214400       0.00087400       0.00083700 
      47      -2.01077369      -0.04435953       6.09946016      -0.00220700       0.00110500       0.00149600 
      47      -4.06347506      -0.04699381       4.05229141      -0.00705100       0.00558700       0.00300800 
      47      -6.13434705       2.02556488       4.06179621       0.01281100      -0.02635300       0.04157900 
      47      -2.02891717      -0.02698205      10.21132476      -0.00717600       0.00171300      -0.00684700 
      47      -4.08161853      -0.02961633       8.16415601      -0.00061500       0.01206400      -0.01042900 
      47      -6.13431990      -0.03225062       6.11698726      -0.00073100       0.01153100      -0.00972900 
      47      -4.07897427       2.02284659       6.11697829      -0.00735700       0.00225600      -0.00651100 
      47      -6.15847092      -0.00756777      10.23626268      -0.00518300       0.00490200       0.00112800 
      47      -4.10312529       2.04752944      10.23625371      -0.00063000       0.00028800      -0.00024600 
      47      -6.15582666       2.04489515       8.18908496       0.00002000       0.00057100      -0.00093400 
      47      -8.20852802       2.04226087       6.14191621       0.00345300      -0.00103900      -0.00288100 
      47      -6.15318240       4.09735807       6.14190724       0.00062500      -0.00184500      -0.00101900 
      47     -10.28283722       4.11683117       6.16672441       0.00115100      -0.00149500      -0.00016200 