30
Lattice="-1.9924138409040673 -5.974428382940656 3.9392204927786034 -5.973155254005068 5.9736359711116735 0.0008694918413119 -3.9806422432021242 0.0003297292405148 -7.875901862472847" Properties=Z:I:1:pos:R:3:vasp_force:R:3 uuid=5a816e02-cb61-491c-b9fd-c816d0ea9cfa vasp_virial="-0.11213985195702757 0.027851479489209865 0.1466084336072959 0.027851479489209865 0.23255181262533856 -0.020181722985252126 0.1466084336072959 -0.020181722985252126 -0.08653695910584419" vasp_energy=-144.31511207 pbc="T T T"
      46      -3.98502515       0.01714126       0.00598394       0.01853700       0.06487800      -0.04027500 
      46      -7.96384215       0.02522331      -3.93684211      -0.00314800       0.00288000       0.00070700 
      46      -7.96469907       0.02493293       0.00153663      -0.00250500       0.00248300       0.00074800 
      46      -5.97304298      -5.94866368      -3.93685598      -0.00236400       0.00291400       0.00113600 
      46      -3.98148606       0.02547433      -3.93769773      -0.00183900       0.00305000       0.00180500 
      46      -7.96333356       1.98951395      -5.90591535      -0.00014400      -0.00708000      -0.00300200 
      46      -7.96419048       1.98922358      -1.96753661      -0.00010500      -0.00591800       0.00055200 
      46      -1.99189215      -3.98470277       1.96997264      -0.00023500      -0.00578400       0.00147500 
      46      -5.97339132      -3.98466341      -1.96755048      -0.00090300      -0.00572300       0.00012900 
      46      -3.98183440       1.98947460      -1.96839223       0.00101300      -0.02099200       0.01628800 
      46      -9.95498534      -1.99168140      -3.93609942      -0.00062300      -0.00120300       0.00055100 
      46      -7.96342842       3.98245661      -3.93694117      -0.00028200       0.00019900      -0.00058400 
      46      -1.99113008      -1.99146974       0.00056808       0.00172500      -0.00384300      -0.00057100 
      46      -5.97262925      -1.99143038      -3.93695504       0.00005400       0.00062800       0.00016100 
      46      -5.97348617      -1.99172075       0.00142370      -0.00995900      -0.00977900      -0.00078300 
      46      -5.97232353       0.00192475      -5.90636710       0.00309900       0.00663300       0.00145100 
      46      -5.97318045       0.00163438      -1.96798835       0.00316900       0.00571600       0.00060100 
      46      -5.97403738       0.00134400       1.97039039      -0.00726000       0.00553300       0.00704700 
      46      -9.95553654       0.00138336      -1.96713273       0.00072000       0.00539100      -0.00113200 
      46      -1.99082437       0.00188540      -1.96884397      -0.00729400       0.00618000       0.00681200 
      46      -1.99129006       1.96567236       0.00046227      -0.00877500      -0.01377100      -0.00234000 
      46      -5.97278923       1.96571172      -3.93706085       0.00416400      -0.00131800      -0.00009200 
      46      -5.97364615       1.96542134       0.00131789       0.00996400      -0.00708900      -0.00182100 
      46      -9.95514532       1.96546070      -3.93620523       0.00378700      -0.00252900       0.00004900 
      46      -3.98284698      -4.00846565       0.00130402       0.00234500      -0.00281300       0.00013200 
      47      -7.96425120      -1.99169162      -1.96733736      -0.00178300       0.00019600      -0.00036100 
      47      -5.97269428       3.98244639      -1.96817911      -0.00057300      -0.00018600       0.00018000 
      47      -9.95419344       3.98248575      -5.90570223      -0.00055800      -0.00050200      -0.00002300 
      47      -3.98189511      -1.99144060      -1.96819298      -0.00002200      -0.00214200      -0.00409300 
      47      -3.98275203      -1.99173097       1.97018577      -0.00020500      -0.01600800       0.01525500 
30
Lattice="-1.9924138409040673 -5.974428382940656 3.9392204927786034 -5.973155254005068 5.9736359711116735 0.0008694918413119 -3.9806422432021242 0.0003297292405148 -7.875901862472847" Properties=Z:I:1:pos:R:3:vasp_force:R:3 uuid=1fa071df-14c3-41cd-a761-1d19e6440d50 vasp_virial="-0.0977769682561353 0.02862635004717738 0.1464563835355438 0.02862635004717738 0.2416660448109414 -0.016210876880648765 0.1464563835355438 -0.016210876880648765 -0.07579403672858885" vasp_energy=-144.3151782 pbc="T T T"
      46      -3.98234299       0.02518395       0.00068101      -0.00222100      -0.00440100      -0.00762700 
      46      -7.96384215       0.02522331      -3.93684211      -0.00380600      -0.00513200       0.00905300 
      46      -7.96469907       0.02493293       0.00153663      -0.00231700       0.00247200       0.00079100 
      46      -5.97304298      -5.94866368      -3.93685598      -0.00142300       0.00248000       0.00151600 
      46      -3.98148606       0.02547433      -3.93769773      -0.00164100       0.00223400       0.00139800 
      46      -7.95626278       1.98244260      -5.90591638      -0.05467200       0.05120700       0.00112900 
      46      -7.96419048       1.98922358      -1.96753661      -0.00065800      -0.00565800       0.00046400 
      46      -1.99189215      -3.98470277       1.96997264       0.00049700      -0.00526300       0.00100700 
      46      -5.97339132      -3.98466341      -1.96755048       0.00001800      -0.00547300       0.00092900 
      46      -3.98183440       1.98947460      -1.96839223       0.00093800      -0.00567500       0.00101100 
      46      -9.95498534      -1.99168140      -3.93609942      -0.00087600      -0.00753600       0.00661300 
      46      -7.96342842       3.98245661      -3.93694117      -0.00112600      -0.00763800      -0.00702500 
      46      -1.99113008      -1.99146974       0.00056808      -0.00172300      -0.00005100      -0.00037800 
      46      -5.97262925      -1.99143038      -3.93695504       0.00019400      -0.00020000       0.00027000 
      46      -5.97348617      -1.99172075       0.00142370      -0.00121500      -0.00064300       0.00008000 
      46      -5.97232353       0.00192475      -5.90636710       0.01489700      -0.00851100      -0.00084900 
      46      -5.97318045       0.00163438      -1.96798835       0.00046600       0.00452700      -0.00067700 
      46      -5.97403738       0.00134400       1.97039039      -0.00100600       0.00649200      -0.00143900 
      46      -9.95553654       0.00138336      -1.96713273       0.00068900       0.00479000      -0.00084700 
      46      -1.99082437       0.00188540      -1.96884397       0.00023600       0.00555600      -0.00124500 
      46      -1.99129006       1.96567236       0.00046227       0.01051900      -0.00109200      -0.00860000 
      46      -5.97278923       1.96571172      -3.93706085       0.01041400      -0.00119200       0.00677100 
      46      -5.97364615       1.96542134       0.00131789       0.00977700      -0.00119800       0.00572900 
      46      -9.95514532       1.96546070      -3.93620523       0.01004200      -0.00204900      -0.00708700 
      46      -3.98284698      -4.00846565       0.00130402       0.00301600      -0.00195900      -0.00052400 
      47      -7.96425120      -1.99169162      -1.96733736      -0.00309500       0.00163400      -0.00008500 
      47      -5.97269428       3.98244639      -1.96817911      -0.00054300      -0.00002600       0.00019300 
      47      -9.95419344       3.98248575      -5.90570223       0.01550700      -0.01671700      -0.00002400 
      47      -3.98189511      -1.99144060      -1.96819298      -0.00028200      -0.00022500      -0.00014500 
      47      -3.98275203      -1.99173097       1.97018577      -0.00060500      -0.00075500      -0.00040400 
30
Lattice="-1.9924138409040673 -5.974428382940656 3.9392204927786034 -5.973155254005068 5.9736359711116735 0.0008694918413119 -3.9806422432021242 0.0003297292405148 -7.875901862472847" Properties=Z:I:1:pos:R:3:vasp_force:R:3 uuid=87ff7bbd-9da6-41da-825a-7464a60c34b1 vasp_virial="-0.0970401102161058 0.029442157162924323 0.1474300888027256 0.029442157162924323 0.23724197253092308 -0.0024532694269235773 0.1474300888027256 -0.0024532694269235773 -0.08703404587887996" vasp_energy=-144.3151263 pbc="T T T"
      46      -3.98234299       0.02518395       0.00068101      -0.00103700      -0.00789000      -0.00829500 
      46      -7.96384215       0.02522331      -3.93684211      -0.00217600       0.01329400      -0.00855600 
      46      -7.96469907       0.02493293       0.00153663      -0.00330300       0.00149800       0.00074700 
      46      -5.97304298      -5.94866368      -3.93685598      -0.00218400       0.00316200       0.00153000 
      46      -3.98148606       0.02547433      -3.93769773      -0.00239700       0.00302800       0.00125300 
      46      -7.96784436       1.98951432      -5.91484018       0.03512300      -0.00574000       0.07072700 
      46      -7.96419048       1.98922358      -1.96753661      -0.00036000      -0.00589800      -0.00007900 
      46      -1.99189215      -3.98470277       1.96997264      -0.00048300      -0.00542300       0.00101700 
      46      -5.97339132      -3.98466341      -1.96755048      -0.00078000      -0.00567300       0.00065500 
      46      -3.98183440       1.98947460      -1.96839223       0.00111700      -0.00603200       0.00049700 
      46      -9.95498534      -1.99168140      -3.93609942       0.00021000       0.01010900      -0.00860800 
      46      -7.96342842       3.98245661      -3.93694117      -0.00013500      -0.01000900      -0.00921900 
      46      -1.99113008      -1.99146974       0.00056808      -0.00246200       0.00042900      -0.00021400 
      46      -5.97262925      -1.99143038      -3.93695504      -0.00055400       0.00040300       0.00020200 
      46      -5.97348617      -1.99172075       0.00142370      -0.00180000      -0.00104500      -0.00003300 
      46      -5.97232353       0.00192475      -5.90636710      -0.00354500       0.01100800      -0.00073100 
      46      -5.97318045       0.00163438      -1.96798835       0.00021800       0.00500000      -0.00184200 
      46      -5.97403738       0.00134400       1.97039039      -0.00338400      -0.00067400      -0.00075900 
      46      -9.95553654       0.00138336      -1.96713273       0.00078200       0.00567500      -0.00158100 
      46      -1.99082437       0.00188540      -1.96884397       0.00044100       0.00536100      -0.00106800 
      46      -1.99129006       1.96567236       0.00046227       0.00956300      -0.00171000      -0.00551300 
      46      -5.97278923       1.96571172      -3.93706085      -0.01065300      -0.00145500      -0.01302500 
      46      -5.97364615       1.96542134       0.00131789      -0.01119300      -0.00235700      -0.01416000 
      46      -9.95514532       1.96546070      -3.93620523       0.00905800      -0.00263500      -0.00419500 
      46      -3.98284698      -4.00846565       0.00130402       0.00326900      -0.00206900      -0.00036200 
      47      -7.96425120      -1.99169162      -1.96733736      -0.00646400      -0.00529200       0.00107100 
      47      -5.97269428       3.98244639      -1.96817911      -0.00078100      -0.00015700      -0.00033000 
      47      -9.95419344       3.98248575      -5.90570223      -0.00558100       0.00554400       0.00145500 
      47      -3.98189511      -1.99144060      -1.96819298      -0.00032100      -0.00022600      -0.00007800 
      47      -3.98275203      -1.99173097       1.97018577      -0.00018600      -0.00022400      -0.00050600 
30
Lattice="-1.9924138409040673 -5.974428382940656 3.9392204927786034 -5.973155254005068 5.9736359711116735 0.0008694918413119 -3.9806422432021242 0.0003297292405148 -7.875901862472847" Properties=Z:I:1:pos:R:3:vasp_force:R:3 uuid=2501e062-c774-4f95-9b76-10258c674203 vasp_virial="-0.09725064108468566 0.029032791585130155 0.14704119150382117 0.029032791585130155 0.23768642658681385 -0.030705342374403442 0.14704119150382117 -0.030705342374403442 -0.08639952923329902" vasp_energy=-144.31515968 pbc="T T T"
      46      -3.98234299       0.02518395       0.00068101      -0.00189100       0.01363600       0.00994400 
      46      -7.96384215       0.02522331      -3.93684211      -0.00357500      -0.00861400       0.00951100 
      46      -7.96469907       0.02493293       0.00153663      -0.00158000       0.00297500       0.00105900 
      46      -5.97304298      -5.94866368      -3.93685598      -0.00235600       0.00245900       0.00152000 
      46      -3.98148606       0.02547433      -3.93769773      -0.00178400       0.00251700       0.00134900 
      46      -7.95882277       1.98951358      -5.89699051      -0.03565500      -0.00548400      -0.06715100 
      46      -7.96419048       1.98922358      -1.96753661      -0.00056500      -0.00565000       0.00120900 
      46      -1.99189215      -3.98470277       1.96997264       0.00052100      -0.00553400       0.00095400 
      46      -5.97339132      -3.98466341      -1.96755048      -0.00009100      -0.00562400       0.00075800 
      46      -3.98183440       1.98947460      -1.96839223       0.00072500      -0.00597800       0.00186700 
      46      -9.95498534      -1.99168140      -3.93609942      -0.00088600      -0.00987400       0.00880100 
      46      -7.96342842       3.98245661      -3.93694117      -0.00098600       0.00960700       0.00801000 
      46      -1.99113008      -1.99146974       0.00056808      -0.00207000       0.00041100      -0.00029800 
      46      -5.97262925      -1.99143038      -3.93695504      -0.00028700      -0.00030300       0.00020100 
      46      -5.97348617      -1.99172075       0.00142370      -0.00044500       0.00004500       0.00013400 
      46      -5.97232353       0.00192475      -5.90636710       0.00446400       0.00103100      -0.00101400 
      46      -5.97318045       0.00163438      -1.96798835       0.00092500       0.00483400      -0.00032800 
      46      -5.97403738       0.00134400       1.97039039       0.00465200       0.00999100      -0.00168000 
      46      -9.95553654       0.00138336      -1.96713273       0.00051800       0.00506500      -0.00032600 
      46      -1.99082437       0.00188540      -1.96884397       0.00001700       0.00548900      -0.00100000 
      46      -1.99129006       1.96567236       0.00046227      -0.00179900      -0.00173900       0.00235500 
      46      -5.97278923       1.96571172      -3.93706085       0.01818200      -0.00224400       0.01262500 
      46      -5.97364615       1.96542134       0.00131789       0.01677200      -0.00146500       0.01133300 
      46      -9.95514532       1.96546070      -3.93620523      -0.00187700      -0.00307600       0.00382800 
      46      -3.98284698      -4.00846565       0.00130402       0.00307700      -0.00199500      -0.00088600 
      47      -7.96425120      -1.99169162      -1.96733736       0.00315700       0.00594600      -0.00151000 
      47      -5.97269428       3.98244639      -1.96817911      -0.00021400       0.00002200       0.00038600 
      47      -9.95419344       3.98248575      -5.90570223       0.00409800      -0.00616300      -0.00150400 
      47      -3.98189511      -1.99144060      -1.96819298      -0.00041100       0.00002100       0.00029700 
      47      -3.98275203      -1.99173097       1.97018577      -0.00063800      -0.00030300      -0.00044600 
30
Lattice="-1.9924138409040673 -5.974428382940656 3.9392204927786034 -5.973155254005068 5.9736359711116735 0.0008694918413119 -3.9806422432021242 0.0003297292405148 -7.875901862472847" Properties=Z:I:1:pos:R:3:vasp_force:R:3 uuid=2e3571b8-f1bc-4e41-955a-5c5fabec7fd4 vasp_virial="-0.09668337735545662 0.03048311534645804 0.14633357386220552 0.03048311534645804 0.23704021378186743 -0.016576381860822123 0.14633357386220552 -0.016576381860822123 -0.0871363872733285" vasp_energy=-144.31515244 pbc="T T T"
      46      -3.98234299       0.02518395       0.00068101      -0.00174700       0.00186600       0.00126600 
      46      -7.96384215       0.02522331      -3.93684211      -0.01298400      -0.00577800      -0.00035200 
      46      -7.96469907       0.02493293       0.00153663      -0.00158300       0.00278500       0.00099600 
      46      -5.97304298      -5.94866368      -3.93685598       0.00314000      -0.00198900       0.00105400 
      46      -3.98148606       0.02547433      -3.93769773      -0.00188100       0.00325300       0.00130400 
      46      -7.96333356       1.98951395      -5.90591535      -0.00030000      -0.01898800       0.01590600 
      46      -7.96419048       1.98922358      -1.96753661      -0.00054500      -0.00611000      -0.00003900 
      46      -1.99189215      -3.98470277       1.96997264      -0.00018700      -0.00580900       0.00139000 
      46      -5.97339132      -3.98466341      -1.96755048      -0.00028500      -0.00577800       0.00056900 
      46      -3.98183440       1.98947460      -1.96839223       0.00107900      -0.00969900      -0.00247100 
      46      -7.96525366       3.97470429      -7.87001699       0.02034700       0.05846700      -0.04367800 
      46      -7.96342842       3.98245661      -3.93694117      -0.00048600      -0.00041400      -0.00030900 
      46      -1.99113008      -1.99146974       0.00056808      -0.00240200       0.00021700      -0.00029400 
      46      -5.97262925      -1.99143038      -3.93695504      -0.00057400      -0.00014300       0.00014900 
      46      -5.97348617      -1.99172075       0.00142370      -0.00107900      -0.00056400       0.00046600 
      46      -5.97232353       0.00192475      -5.90636710       0.00027500       0.00569600      -0.00046000 
      46      -5.97318045       0.00163438      -1.96798835       0.00049200       0.00458900      -0.00167600 
      46      -5.97403738       0.00134400       1.97039039       0.00065400      -0.00870700       0.01278400 
      46      -9.95553654       0.00138336      -1.96713273       0.00079300       0.00167900      -0.00458400 
      46      -1.99082437       0.00188540      -1.96884397       0.00036900       0.00529900      -0.00115900 
      46      -1.99129006       1.96567236       0.00046227       0.00935000      -0.00660500      -0.00205000 
      46      -5.97278923       1.96571172      -3.93706085       0.00427800      -0.00130800      -0.00041400 
      46      -5.97364615       1.96542134       0.00131789      -0.00737600      -0.01053900      -0.00184000 
      46      -9.95514532       1.96546070      -3.93620523       0.00337800      -0.00404700       0.00011600 
      46      -3.98284698      -4.00846565       0.00130402       0.00339100      -0.00154000      -0.00060400 
      47      -7.96425120      -1.99169162      -1.96733736       0.00243500       0.00142300       0.00234800 
      47      -5.97269428       3.98244639      -1.96817911       0.00360400       0.00101900       0.00259600 
      47      -9.95419344       3.98248575      -5.90570223      -0.01115300       0.00091000       0.00972500 
      47      -3.98189511      -1.99144060      -1.96819298      -0.00040400      -0.00006800       0.00017700 
      47      -3.98275203      -1.99173097       1.97018577      -0.01059700       0.00088500       0.00908400 
30
Lattice="-1.9924138409040673 -5.974428382940656 3.9392204927786034 -5.973155254005068 5.9736359711116735 0.0008694918413119 -3.9806422432021242 0.0003297292405148 -7.875901862472847" Properties=Z:I:1:pos:R:3:vasp_force:R:3 uuid=aacb2ad4-52c8-4b63-bbeb-3409fa272575 vasp_virial="-0.09705180637547134 0.030184863282636577 0.14610842279441877 0.030184863282636577 0.2379232738139662 -0.016819077167657234 0.14610842279441877 -0.016819077167657234 -0.08702819779919718" vasp_energy=-144.31514979 pbc="T T T"
      46      -3.98234299       0.02518395       0.00068101      -0.00120200       0.00416800       0.00064500 
      46      -7.96384215       0.02522331      -3.93684211       0.00768800       0.01109900       0.00109800 
      46      -7.96469907       0.02493293       0.00153663      -0.00325400       0.00164200       0.00084500 
      46      -5.97304298      -5.94866368      -3.93685598      -0.00774500       0.00761200       0.00203200 
      46      -3.98148606       0.02547433      -3.93769773      -0.00228300       0.00222000       0.00130600 
      46      -7.96333356       1.98951395      -5.90591535      -0.00035800       0.00831500      -0.01275800 
      46      -7.96419048       1.98922358      -1.96753661      -0.00036100      -0.00551100       0.00116600 
      46      -1.99189215      -3.98470277       1.96997264       0.00022400      -0.00521200       0.00061700 
      46      -5.97339132      -3.98466341      -1.96755048      -0.00053900      -0.00558700       0.00085500 
      46      -3.98183440       1.98947460      -1.96839223       0.00081400      -0.00237400       0.00484100 
      46      -9.95230317      -1.98363870      -3.94140235      -0.02166900      -0.05787900       0.04454500 
      46      -7.96342842       3.98245661      -3.93694117      -0.00055000      -0.00034500      -0.00110200 
      46      -1.99113008      -1.99146974       0.00056808      -0.00208500       0.00054200      -0.00018200 
      46      -5.97262925      -1.99143038      -3.93695504      -0.00025600       0.00018200       0.00026100 
      46      -5.97348617      -1.99172075       0.00142370      -0.00114400      -0.00049500      -0.00032800 
      46      -5.97232353       0.00192475      -5.90636710       0.00068700       0.00629400      -0.00123300 
      46      -5.97318045       0.00163438      -1.96798835       0.00067600       0.00518700      -0.00047100 
      46      -5.97403738       0.00134400       1.97039039       0.00059300       0.01858600      -0.01586800 
      46      -9.95553654       0.00138336      -1.96713273       0.00052500       0.00900200       0.00272400 
      46      -1.99082437       0.00188540      -1.96884397       0.00011400       0.00549000      -0.00087200 
      46      -1.99129006       1.96567236       0.00046227      -0.00155500       0.00301500      -0.00107200 
      46      -5.97278923       1.96571172      -3.93706085       0.00260500      -0.00245200      -0.00056600 
      46      -5.97364615       1.96542134       0.00131789       0.01325300       0.00629200      -0.00039200 
      46      -9.95514532       1.96546070      -3.93620523       0.00392200      -0.00174400      -0.00050400 
      46      -3.98284698      -4.00846565       0.00130402       0.00298800      -0.00257300      -0.00060100 
      47      -7.96425120      -1.99169162      -1.96733736      -0.00574800      -0.00086400      -0.00274100 
      47      -5.97269428       3.98244639      -1.96817911      -0.00457900      -0.00126600      -0.00249400 
      47      -9.95419344       3.98248575      -5.90570223       0.00949000      -0.00155600      -0.00958200 
      47      -3.98189511      -1.99144060      -1.96819298      -0.00029600      -0.00020600       0.00005500 
      47      -3.98275203      -1.99173097       1.97018577       0.01004700      -0.00158300      -0.01022500 
30
Lattice="-1.9924138409040673 -5.974428382940656 3.9392204927786034 -5.973155254005068 5.9736359711116735 0.0008694918413119 -3.9806422432021242 0.0003297292405148 -7.875901862472847" Properties=Z:I:1:pos:R:3:vasp_force:R:3 uuid=be10728c-218c-4d82-9b27-d7825e0d9ccc vasp_virial="-0.09770386726010061 0.029357360007524102 0.1462253843880742 0.029357360007524102 0.23657821548692828 -0.016371699071925042 0.1462253843880742 -0.016371699071925042 -0.08744341145667411" vasp_energy=-144.31515781 pbc="T T T"
      46      -3.98234299       0.02518395       0.00068101      -0.00115000       0.00371200       0.00093100 
      46      -7.96384215       0.02522331      -3.93684211      -0.00174700       0.00254900       0.00041900 
      46      -7.96469907       0.02493293       0.00153663      -0.00211200       0.00197700       0.00086300 
      46      -5.97304298      -5.94866368      -3.93685598      -0.01510400       0.01447000       0.00152700 
      46      -3.98148606       0.02547433      -3.93769773      -0.00198700       0.00248500       0.00134000 
      46      -7.96333356       1.98951395      -5.90591535       0.00011300       0.00245100      -0.00635400 
      46      -7.96419048       1.98922358      -1.96753661      -0.00053800      -0.00582100       0.00051700 
      46      -1.99189215      -3.98470277       1.96997264      -0.00049800      -0.00514600       0.00089300 
      46      -5.97339132      -3.98466341      -1.96755048      -0.00082400      -0.00506300       0.00078700 
      46      -3.98183440       1.98947460      -1.96839223       0.00150400       0.00124900       0.00893900 
      46      -9.96205612      -1.98461005      -3.93609839       0.05458600      -0.05106000       0.00042800 
      46      -7.96342842       3.98245661      -3.93694117      -0.00052000      -0.00030000      -0.00068600 
      46      -1.99113008      -1.99146974       0.00056808      -0.00271200       0.00055200      -0.00024300 
      46      -5.97262925      -1.99143038      -3.93695504      -0.00087600       0.00018100       0.00021100 
      46      -5.97348617      -1.99172075       0.00142370      -0.00111200      -0.00044800       0.00007900 
      46      -5.97232353       0.00192475      -5.90636710      -0.00005500       0.00636200      -0.00094200 
      46      -5.97318045       0.00163438      -1.96798835       0.00049900       0.00488000      -0.00111200 
      46      -5.97403738       0.00134400       1.97039039       0.00116900       0.01227700      -0.00902700 
      46      -9.95553654       0.00138336      -1.96713273       0.00128600       0.01278100       0.00697000 
      46      -1.99082437       0.00188540      -1.96884397      -0.00017500       0.00600400      -0.00095700 
      46      -1.99129006       1.96567236       0.00046227      -0.00836500       0.00929900      -0.00155500 
      46      -5.97278923       1.96571172      -3.93706085       0.00377600      -0.00209500      -0.00053500 
      46      -5.97364615       1.96542134       0.00131789       0.00424300      -0.00186200      -0.00104400 
      46      -9.95514532       1.96546070      -3.93620523       0.00396400      -0.00219800      -0.00022900 
      46      -3.98284698      -4.00846565       0.00130402       0.00329400      -0.00233300      -0.00058300 
      47      -7.96425120      -1.99169162      -1.96733736      -0.00985600      -0.00075500      -0.00968000 
      47      -5.97269428       3.98244639      -1.96817911      -0.00882600      -0.00120300      -0.00967000 
      47      -9.95419344       3.98248575      -5.90570223      -0.00901300      -0.00144100       0.00959900 
      47      -3.98189511      -1.99144060      -1.96819298      -0.00040300      -0.00020200       0.00014900 
      47      -3.98275203      -1.99173097       1.97018577      -0.00856300      -0.00130000       0.00896300 
30
Lattice="-1.9924138409040673 -5.974428382940656 3.9392204927786034 -5.973155254005068 5.9736359711116735 0.0008694918413119 -3.9806422432021242 0.0003297292405148 -7.875901862472847" Properties=Z:I:1:pos:R:3:vasp_force:R:3 uuid=9daeb39a-9bb3-4f99-908a-0eddf87f534d vasp_virial="-0.09730912188151337 0.029392448485620736 0.14685112891413102 0.029392448485620736 0.23663377224391466 -0.015497411159350369 0.14685112891413102 -0.015497411159350369 -0.08745510761603967" vasp_energy=-144.31515024 pbc="T T T"
      46      -3.98234299       0.02518395       0.00068101      -0.00178700       0.00231500       0.00098500 
      46      -7.96384215       0.02522331      -3.93684211      -0.00395100       0.00239500       0.00029700 
      46      -7.96469907       0.02493293       0.00153663      -0.00275100       0.00242400       0.00095800 
      46      -5.97304298      -5.94866368      -3.93685598       0.00994500      -0.00826700       0.00153400 
      46      -3.98148606       0.02547433      -3.93769773      -0.00218400       0.00300900       0.00127800 
      46      -7.96333356       1.98951395      -5.90591535      -0.00087300      -0.01267800       0.00905600 
      46      -7.96419048       1.98922358      -1.96753661      -0.00036400      -0.00580800       0.00059700 
      46      -1.99189215      -3.98470277       1.96997264       0.00055800      -0.00588100       0.00109300 
      46      -5.97339132      -3.98466341      -1.96755048       0.00000800      -0.00629600       0.00064900 
      46      -3.98183440       1.98947460      -1.96839223       0.00031900      -0.01348200      -0.00672300 
      46      -9.94791455      -1.99875275      -3.93610045      -0.05599700       0.05176300       0.00059600 
      46      -7.96342842       3.98245661      -3.93694117      -0.00051400      -0.00046400      -0.00072300 
      46      -1.99113008      -1.99146974       0.00056808      -0.00178000       0.00021600      -0.00024900 
      46      -5.97262925      -1.99143038      -3.93695504       0.00005500      -0.00015600       0.00020600 
      46      -5.97348617      -1.99172075       0.00142370      -0.00110600      -0.00061200       0.00004100 
      46      -5.97232353       0.00192475      -5.90636710       0.00100000       0.00562700      -0.00074100 
      46      -5.97318045       0.00163438      -1.96798835       0.00067100       0.00489400      -0.00103200 
      46      -5.97403738       0.00134400       1.97039039       0.00018700      -0.00285200       0.00637900 
      46      -9.95553654       0.00138336      -1.96713273       0.00010700      -0.00194800      -0.00868800 
      46      -1.99082437       0.00188540      -1.96884397       0.00065700       0.00477000      -0.00109600 
      46      -1.99129006       1.96567236       0.00046227       0.01672100      -0.01347800      -0.00155000 