  30
   1   1
     5.528161805568754    -0.225659771552310    -0.118238841386809
    -0.202889774517716     5.515370348275042     0.166654559930531
    -0.123800522593660     0.166493540279124     6.287941430278197
   1   2
    -0.562072358912828    -0.540654272943376    -0.003776499456896
    -0.541440209192383    -0.549547089225512     0.001126212941763
    -0.003551462440774     0.001176782254836    -0.058049266459431
   1   3
     0.001275909515764    -0.060462452449499     0.005976997466697
    -0.061267343394577    -0.014795598966727     0.006410663882779
     0.006149926031811     0.006396873966808     0.025501895647313
   1   4
     0.001278403346215    -0.060476664048274     0.005972932035173
    -0.061279341730037    -0.014814560063078     0.006410177799896
     0.006158834972172     0.006396412712176     0.025504618003110
   1   5
    -0.562108723017014    -0.540609828245674    -0.003772715805408
    -0.541502611251791    -0.549557232313041     0.001158709170665
    -0.003554236135812     0.001156434954184    -0.058042471267180
   1   6
     0.103082821981175    -0.009695051844876    -0.008003059301251
    -0.011556187801035    -0.836505213159014    -0.921552982085099
    -0.014046241816958    -0.911428966949063    -0.804870623045211
   1   7
    -0.012322622825851     0.010329321891541     0.009914179360352
     0.010361981823306    -0.013740480451492     0.000393131201177
     0.012116998909541     0.002310272976233    -0.008110319856549
   1   8
    -0.028776398384567     0.015385160110916    -0.039108522037080
     0.020481571342857    -0.029020285305231    -0.018358016025335
    -0.040090953811124    -0.004612364811895    -0.021612706627136
   1   9
     0.013366115444068     0.005496059114512     0.016841853050610
    -0.010178621564275     0.017276740890410    -0.000166167058603
     0.015483571214507    -0.002665595803414    -0.033460869459305
   1  10
    -0.852920710643982    -0.014713291617173     0.913469789374015
    -0.006715179165757     0.062128269649664     0.023827323718284
     0.895712705624833     0.025456643527810    -0.815169604966878
   1  11
     0.098516746011012    -0.013133426319890    -0.000797280832353
    -0.016469011389688    -0.753681046681908     0.830518317642844
     0.008678311272479     0.830206974130857    -0.722624613731763
   1  12
    -0.024069125946114     0.017305916010375     0.016156106248525
     0.017527950433246    -0.026861675958791    -0.025141134853959
     0.009377914434352    -0.022738273271818    -0.036310850345866
   1  13
    -0.020290757217851     0.015025154501847     0.024329865724936
     0.025701300800646     0.005666151621921    -0.003147705688365
     0.028770997960360    -0.005862464561823     0.010125826313360
   1  14
     0.000995770668463     0.004862062908724    -0.031138071930941
    -0.005783326187874    -0.010573692636636     0.030318882722488
    -0.024282325645650     0.017891962028185    -0.024909772107649
   1  15
    -0.782509822753602    -0.007425532984667    -0.840245127994454
    -0.008140698322052     0.080293112715894    -0.011780284174379
    -0.837543287853908    -0.014790807609754    -0.747037226342347
   1  16
    -0.641096533092756     0.686918592379400    -0.003178446117243
     0.683252669894789    -0.628153126729832     0.006202688712385
     0.002970749083306     0.000585027319262     0.058639591542237
   1  17
     0.007364686054566    -0.009071044957940     0.008282015971007
     0.007940476433739    -0.103926459237800     0.007664942130292
     0.000904515059012     0.002909537626832     0.017938664786802
   1  18
    -0.640940310162321     0.686751694966567    -0.003142156108786
     0.683107746997369    -0.628038175500844     0.006159575545954
     0.002982300543268     0.000572282006202     0.058626916160993
   1  19
    -0.060814195224403     0.007965967013529    -0.005068776538187
     0.001638902196841    -0.009423686111214    -0.006368784624969
     0.002223187137877    -0.007264998030115     0.023395531498664
   1  20
    -0.060817627400961     0.007967549179549    -0.005064180655011
     0.001606409493449    -0.009409185796532    -0.006379799875268
     0.002221034943499    -0.007260209232458     0.023393003425493
   1  21
    -0.024074527734580     0.017326056824444     0.016142593741348
     0.017521459668558    -0.026870206774675    -0.025128111661582
     0.009372008567025    -0.022712374354001    -0.036325660960605
   1  22
     0.098458949999246    -0.013086433213359    -0.000817593158868
    -0.016417406598233    -0.753102550532208     0.829500973460762
     0.008620750487477     0.829303326300231    -0.721485868183118
   1  23
    -0.783036561919937    -0.007252390167218    -0.840708714111928
    -0.007975704883423     0.080336334397242    -0.011583798424742
    -0.838026914983241    -0.014582514109163    -0.747348157055044
   1  24
     0.000992968943160     0.004857792209259    -0.031143822905719
    -0.005786321882678    -0.010566189009098     0.030327394695438
    -0.024285890647660     0.017883446384872    -0.024913920155338
   1  25
    -0.020293987580156     0.015033192307205     0.024332582661816
     0.025706312973469     0.005690146361008    -0.003107699191152
     0.028774286680227    -0.005844991341851     0.010140127586224
   1  26
    -0.852468933456174    -0.014550507725015     0.913113451671048
    -0.006553406411926     0.062069654650455     0.023654105780298
     0.895223302353400     0.025288416172275    -0.814866222277222
   1  27
     0.013354118599072     0.005486951721837     0.016842597772563
    -0.010176583325504     0.017275779327187    -0.000163637300909
     0.015488669989857    -0.002652008651989    -0.033428050685078
   1  28
    -0.028779946556693     0.015382213893323    -0.039102204580865
     0.020485582631537    -0.029013274889632    -0.018345018301305
    -0.040089482419312    -0.004610084433789    -0.021597029420716
   1  29
    -0.012328212188824     0.010361916449100     0.009914166835305
     0.010358492464942    -0.013762587273152     0.000370624264973
     0.012111993535961     0.002293471499550    -0.008117410885662
   1  30
     0.102871647006749    -0.009663253114047    -0.007982446429558
    -0.011558125603778    -0.834744726213582    -0.919476145483834
    -0.014070729966137    -0.909296036427340    -0.802926217104161
   2   1
    -0.562108723017013    -0.540609828245674    -0.003772715805408
    -0.541502611251791    -0.549557232313041     0.001158709170665
    -0.003554236135812     0.001156434954184    -0.058042471267180
   2   2
     5.528161805568750    -0.225659771552310    -0.118238841386809
    -0.202889774517716     5.515370348275042     0.166654559930531
    -0.123800522593659     0.166493540279124     6.287941430278197
   2   3
    -0.562072358912828    -0.540654272943376    -0.003776499456896
    -0.541440209192383    -0.549547089225512     0.001126212941763
    -0.003551462440774     0.001176782254836    -0.058049266459431
   2   4
     0.001275909515764    -0.060462452449499     0.005976997466697
    -0.061267343394577    -0.014795598966727     0.006410663882779
     0.006149926031811     0.006396873966808     0.025501895647313
   2   5
     0.001278403346215    -0.060476664048274     0.005972932035173
    -0.061279341730037    -0.014814560063078     0.006410177799896
     0.006158834972172     0.006396412712176     0.025504618003110
   2   6
    -0.852920710643981    -0.014713291617173     0.913469789374015
    -0.006715179165757     0.062128269649664     0.023827323718284
     0.895712705624833     0.025456643527810    -0.815169604966878
   2   7
     0.103082821981175    -0.009695051844876    -0.008003059301251
    -0.011556187801036    -0.836505213159014    -0.921552982085099
    -0.014046241816958    -0.911428966949063    -0.804870623045211
   2   8
    -0.012322622825851     0.010329321891541     0.009914179360352
     0.010361981823306    -0.013740480451492     0.000393131201177
     0.012116998909541     0.002310272976233    -0.008110319856549
   2   9
    -0.028776398384567     0.015385160110916    -0.039108522037080
     0.020481571342857    -0.029020285305231    -0.018358016025335
    -0.040090953811124    -0.004612364811895    -0.021612706627136
   2  10
     0.013366115444068     0.005496059114512     0.016841853050610
    -0.010178621564275     0.017276740890410    -0.000166167058603
     0.015483571214507    -0.002665595803414    -0.033460869459305
   2  11
    -0.782509822753601    -0.007425532984667    -0.840245127994454
    -0.008140698322052     0.080293112715894    -0.011780284174379
    -0.837543287853908    -0.014790807609754    -0.747037226342347
   2  12
     0.098516746011012    -0.013133426319890    -0.000797280832353
    -0.016469011389688    -0.753681046681908     0.830518317642844
     0.008678311272478     0.830206974130857    -0.722624613731763
   2  13
    -0.024069125946114     0.017305916010375     0.016156106248525
     0.017527950433246    -0.026861675958791    -0.025141134853959
     0.009377914434352    -0.022738273271818    -0.036310850345866
   2  14
    -0.020290757217851     0.015025154501847     0.024329865724936
     0.025701300800646     0.005666151621921    -0.003147705688365
     0.028770997960360    -0.005862464561823     0.010125826313360
   2  15
     0.000995770668463     0.004862062908724    -0.031138071930941
    -0.005783326187874    -0.010573692636636     0.030318882722488
    -0.024282325645650     0.017891962028185    -0.024909772107649
   2  16
    -0.060817627400961     0.007967549179549    -0.005064180655011
     0.001606409493449    -0.009409185796532    -0.006379799875268
     0.002221034943499    -0.007260209232458     0.023393003425493
   2  17
    -0.641096533092755     0.686918592379400    -0.003178446117243
     0.683252669894789    -0.628153126729832     0.006202688712385
     0.002970749083306     0.000585027319262     0.058639591542237
   2  18
     0.007364686054566    -0.009071044957940     0.008282015971007
     0.007940476433739    -0.103926459237800     0.007664942130292
     0.000904515059012     0.002909537626832     0.017938664786802
   2  19
    -0.640940310162320     0.686751694966567    -0.003142156108786
     0.683107746997369    -0.628038175500844     0.006159575545954
     0.002982300543268     0.000572282006202     0.058626916160993
   2  20
    -0.060814195224403     0.007965967013529    -0.005068776538187
     0.001638902196841    -0.009423686111214    -0.006368784624969
     0.002223187137877    -0.007264998030115     0.023395531498664
   2  21
    -0.020293987580156     0.015033192307205     0.024332582661816
     0.025706312973469     0.005690146361008    -0.003107699191152
     0.028774286680227    -0.005844991341851     0.010140127586224
   2  22
    -0.024074527734580     0.017326056824444     0.016142593741348
     0.017521459668558    -0.026870206774675    -0.025128111661582
     0.009372008567025    -0.022712374354001    -0.036325660960605
   2  23
     0.098458949999246    -0.013086433213359    -0.000817593158868
    -0.016417406598232    -0.753102550532208     0.829500973460762
     0.008620750487477     0.829303326300231    -0.721485868183118
   2  24
    -0.783036561919936    -0.007252390167218    -0.840708714111928
    -0.007975704883423     0.080336334397242    -0.011583798424742
    -0.838026914983241    -0.014582514109163    -0.747348157055044
   2  25
     0.000992968943160     0.004857792209259    -0.031143822905719
    -0.005786321882678    -0.010566189009098     0.030327394695438
    -0.024285890647660     0.017883446384872    -0.024913920155338
   2  26
     0.102871647006749    -0.009663253114047    -0.007982446429558
    -0.011558125603778    -0.834744726213582    -0.919476145483834
    -0.014070729966137    -0.909296036427340    -0.802926217104161
   2  27
    -0.852468933456174    -0.014550507725015     0.913113451671048
    -0.006553406411926     0.062069654650455     0.023654105780298
     0.895223302353400     0.025288416172275    -0.814866222277223
   2  28
     0.013354118599072     0.005486951721837     0.016842597772563
    -0.010176583325504     0.017275779327187    -0.000163637300909
     0.015488669989857    -0.002652008651989    -0.033428050685078
   2  29
    -0.028779946556693     0.015382213893323    -0.039102204580865
     0.020485582631537    -0.029013274889632    -0.018345018301305
    -0.040089482419312    -0.004610084433789    -0.021597029420716
   2  30
    -0.012328212188824     0.010361916449100     0.009914166835305
     0.010358492464942    -0.013762587273152     0.000370624264973
     0.012111993535961     0.002293471499550    -0.008117410885662
   3   1
     0.001278403346215    -0.060476664048274     0.005972932035173
    -0.061279341730037    -0.014814560063078     0.006410177799896
     0.006158834972172     0.006396412712176     0.025504618003110
   3   2
    -0.562108723017013    -0.540609828245674    -0.003772715805408
    -0.541502611251791    -0.549557232313041     0.001158709170665
    -0.003554236135812     0.001156434954184    -0.058042471267180
   3   3
     5.528161805568750    -0.225659771552310    -0.118238841386809
    -0.202889774517716     5.515370348275042     0.166654559930531
    -0.123800522593659     0.166493540279124     6.287941430278197
   3   4
    -0.562072358912828    -0.540654272943376    -0.003776499456896
    -0.541440209192383    -0.549547089225512     0.001126212941763
    -0.003551462440774     0.001176782254836    -0.058049266459431
   3   5
     0.001275909515764    -0.060462452449499     0.005976997466697
    -0.061267343394577    -0.014795598966727     0.006410663882779
     0.006149926031811     0.006396873966808     0.025501895647313
   3   6
     0.013366115444068     0.005496059114512     0.016841853050610
    -0.010178621564275     0.017276740890410    -0.000166167058603
     0.015483571214507    -0.002665595803414    -0.033460869459305
   3   7
    -0.852920710643981    -0.014713291617173     0.913469789374015
    -0.006715179165757     0.062128269649664     0.023827323718284
     0.895712705624833     0.025456643527810    -0.815169604966878
   3   8
     0.103082821981175    -0.009695051844876    -0.008003059301251
    -0.011556187801036    -0.836505213159014    -0.921552982085099
    -0.014046241816958    -0.911428966949063    -0.804870623045211
   3   9
    -0.012322622825851     0.010329321891541     0.009914179360352
     0.010361981823306    -0.013740480451492     0.000393131201177
     0.012116998909541     0.002310272976233    -0.008110319856549
   3  10
    -0.028776398384567     0.015385160110916    -0.039108522037080
     0.020481571342857    -0.029020285305231    -0.018358016025335
    -0.040090953811124    -0.004612364811895    -0.021612706627136
   3  11
     0.000995770668463     0.004862062908724    -0.031138071930941
    -0.005783326187874    -0.010573692636636     0.030318882722488
    -0.024282325645650     0.017891962028185    -0.024909772107649
   3  12
    -0.782509822753601    -0.007425532984667    -0.840245127994454
    -0.008140698322052     0.080293112715894    -0.011780284174379
    -0.837543287853908    -0.014790807609754    -0.747037226342347
   3  13
     0.098516746011012    -0.013133426319890    -0.000797280832353
    -0.016469011389688    -0.753681046681908     0.830518317642844
     0.008678311272478     0.830206974130857    -0.722624613731763
   3  14
    -0.024069125946114     0.017305916010375     0.016156106248525
     0.017527950433246    -0.026861675958791    -0.025141134853959
     0.009377914434352    -0.022738273271818    -0.036310850345866
   3  15
    -0.020290757217851     0.015025154501847     0.024329865724936
     0.025701300800646     0.005666151621921    -0.003147705688365
     0.028770997960360    -0.005862464561823     0.010125826313360
   3  16
    -0.060814195224403     0.007965967013529    -0.005068776538187
     0.001638902196841    -0.009423686111214    -0.006368784624969
     0.002223187137877    -0.007264998030115     0.023395531498664
   3  17
    -0.060817627400961     0.007967549179549    -0.005064180655011
     0.001606409493449    -0.009409185796532    -0.006379799875268
     0.002221034943499    -0.007260209232458     0.023393003425493
   3  18
    -0.641096533092755     0.686918592379400    -0.003178446117243
     0.683252669894789    -0.628153126729832     0.006202688712385
     0.002970749083306     0.000585027319262     0.058639591542237
   3  19
     0.007364686054566    -0.009071044957940     0.008282015971007
     0.007940476433739    -0.103926459237800     0.007664942130292
     0.000904515059012     0.002909537626832     0.017938664786802
   3  20
    -0.640940310162320     0.686751694966567    -0.003142156108786
     0.683107746997369    -0.628038175500844     0.006159575545954
     0.002982300543268     0.000572282006202     0.058626916160993
   3  21
     0.000992968943160     0.004857792209259    -0.031143822905719
    -0.005786321882678    -0.010566189009098     0.030327394695438
    -0.024285890647660     0.017883446384872    -0.024913920155338
   3  22
    -0.020293987580156     0.015033192307205     0.024332582661816
     0.025706312973469     0.005690146361008    -0.003107699191152
     0.028774286680227    -0.005844991341851     0.010140127586224
   3  23
    -0.024074527734580     0.017326056824444     0.016142593741348
     0.017521459668558    -0.026870206774675    -0.025128111661582
     0.009372008567025    -0.022712374354001    -0.036325660960605
   3  24
     0.098458949999246    -0.013086433213359    -0.000817593158868
    -0.016417406598232    -0.753102550532208     0.829500973460762
     0.008620750487477     0.829303326300231    -0.721485868183118
   3  25
    -0.783036561919936    -0.007252390167218    -0.840708714111928
    -0.007975704883423     0.080336334397242    -0.011583798424742
    -0.838026914983241    -0.014582514109163    -0.747348157055044
   3  26
    -0.012328212188824     0.010361916449100     0.009914166835305
     0.010358492464942    -0.013762587273152     0.000370624264973
     0.012111993535961     0.002293471499550    -0.008117410885662
   3  27
     0.102871647006749    -0.009663253114047    -0.007982446429558
    -0.011558125603778    -0.834744726213582    -0.919476145483834
    -0.014070729966137    -0.909296036427340    -0.802926217104161
   3  28
    -0.852468933456174    -0.014550507725015     0.913113451671048
    -0.006553406411926     0.062069654650455     0.023654105780298
     0.895223302353400     0.025288416172275    -0.814866222277223
   3  29
     0.013354118599072     0.005486951721837     0.016842597772563
    -0.010176583325504     0.017275779327187    -0.000163637300909
     0.015488669989857    -0.002652008651989    -0.033428050685078
   3  30
    -0.028779946556693     0.015382213893323    -0.039102204580865
     0.020485582631537    -0.029013274889632    -0.018345018301305
    -0.040089482419312    -0.004610084433789    -0.021597029420716
   4   1
     0.001275909515764    -0.060462452449499     0.005976997466697
    -0.061267343394577    -0.014795598966727     0.006410663882779
     0.006149926031811     0.006396873966808     0.025501895647313
   4   2
     0.001278403346215    -0.060476664048274     0.005972932035173
    -0.061279341730037    -0.014814560063078     0.006410177799896
     0.006158834972172     0.006396412712176     0.025504618003110
   4   3
    -0.562108723017013    -0.540609828245674    -0.003772715805408
    -0.541502611251791    -0.549557232313041     0.001158709170665
    -0.003554236135812     0.001156434954184    -0.058042471267180
   4   4
     5.528161805568750    -0.225659771552310    -0.118238841386809
    -0.202889774517716     5.515370348275042     0.166654559930531
    -0.123800522593659     0.166493540279124     6.287941430278197
   4   5
    -0.562072358912828    -0.540654272943376    -0.003776499456896
    -0.541440209192383    -0.549547089225512     0.001126212941763
    -0.003551462440774     0.001176782254836    -0.058049266459431
   4   6
    -0.028776398384567     0.015385160110916    -0.039108522037080
     0.020481571342857    -0.029020285305231    -0.018358016025335
    -0.040090953811124    -0.004612364811895    -0.021612706627136
   4   7
     0.013366115444068     0.005496059114512     0.016841853050610
    -0.010178621564275     0.017276740890410    -0.000166167058603
     0.015483571214507    -0.002665595803414    -0.033460869459305
   4   8
    -0.852920710643981    -0.014713291617173     0.913469789374015
    -0.006715179165757     0.062128269649664     0.023827323718284
     0.895712705624833     0.025456643527810    -0.815169604966878
   4   9
     0.103082821981175    -0.009695051844876    -0.008003059301251
    -0.011556187801036    -0.836505213159014    -0.921552982085099
    -0.014046241816958    -0.911428966949063    -0.804870623045211
   4  10
    -0.012322622825851     0.010329321891541     0.009914179360352
     0.010361981823306    -0.013740480451492     0.000393131201177
     0.012116998909541     0.002310272976233    -0.008110319856549
   4  11
    -0.020290757217851     0.015025154501847     0.024329865724936
     0.025701300800646     0.005666151621921    -0.003147705688365
     0.028770997960360    -0.005862464561823     0.010125826313360
   4  12
     0.000995770668463     0.004862062908724    -0.031138071930941
    -0.005783326187874    -0.010573692636636     0.030318882722488
    -0.024282325645650     0.017891962028185    -0.024909772107649
   4  13
    -0.782509822753601    -0.007425532984667    -0.840245127994454
    -0.008140698322052     0.080293112715894    -0.011780284174379
    -0.837543287853908    -0.014790807609754    -0.747037226342347
   4  14
     0.098516746011012    -0.013133426319890    -0.000797280832353
    -0.016469011389688    -0.753681046681908     0.830518317642844
     0.008678311272478     0.830206974130857    -0.722624613731763
   4  15
    -0.024069125946114     0.017305916010375     0.016156106248525
     0.017527950433246    -0.026861675958791    -0.025141134853959
     0.009377914434352    -0.022738273271818    -0.036310850345866
   4  16
    -0.640940310162320     0.686751694966567    -0.003142156108786
     0.683107746997369    -0.628038175500844     0.006159575545954
     0.002982300543268     0.000572282006202     0.058626916160993
   4  17
    -0.060814195224403     0.007965967013529    -0.005068776538187
     0.001638902196841    -0.009423686111214    -0.006368784624969
     0.002223187137877    -0.007264998030115     0.023395531498664
   4  18
    -0.060817627400961     0.007967549179549    -0.005064180655011
     0.001606409493449    -0.009409185796532    -0.006379799875268
     0.002221034943499    -0.007260209232458     0.023393003425493
   4  19
    -0.641096533092755     0.686918592379400    -0.003178446117243
     0.683252669894789    -0.628153126729832     0.006202688712385
     0.002970749083306     0.000585027319262     0.058639591542237
   4  20
     0.007364686054566    -0.009071044957940     0.008282015971007
     0.007940476433739    -0.103926459237800     0.007664942130292
     0.000904515059012     0.002909537626832     0.017938664786802
   4  21
    -0.783036561919936    -0.007252390167218    -0.840708714111928
    -0.007975704883423     0.080336334397242    -0.011583798424742
    -0.838026914983241    -0.014582514109163    -0.747348157055044
   4  22
     0.000992968943160     0.004857792209259    -0.031143822905719
    -0.005786321882678    -0.010566189009098     0.030327394695438
    -0.024285890647660     0.017883446384872    -0.024913920155338
   4  23
    -0.020293987580156     0.015033192307205     0.024332582661816
     0.025706312973469     0.005690146361008    -0.003107699191152
     0.028774286680227    -0.005844991341851     0.010140127586224
   4  24
    -0.024074527734580     0.017326056824444     0.016142593741348
     0.017521459668558    -0.026870206774675    -0.025128111661582
     0.009372008567025    -0.022712374354001    -0.036325660960605
   4  25
     0.098458949999246    -0.013086433213359    -0.000817593158868
    -0.016417406598232    -0.753102550532208     0.829500973460762
     0.008620750487477     0.829303326300231    -0.721485868183118
   4  26
    -0.028779946556693     0.015382213893323    -0.039102204580865
     0.020485582631537    -0.029013274889632    -0.018345018301305
    -0.040089482419312    -0.004610084433789    -0.021597029420716
   4  27
    -0.012328212188824     0.010361916449100     0.009914166835305
     0.010358492464942    -0.013762587273152     0.000370624264973
     0.012111993535961     0.002293471499550    -0.008117410885662
   4  28
     0.102871647006749    -0.009663253114047    -0.007982446429558
    -0.011558125603778    -0.834744726213582    -0.919476145483834
    -0.014070729966137    -0.909296036427340    -0.802926217104161
   4  29
    -0.852468933456174    -0.014550507725015     0.913113451671048
    -0.006553406411926     0.062069654650455     0.023654105780298
     0.895223302353400     0.025288416172275    -0.814866222277223
   4  30
     0.013354118599072     0.005486951721837     0.016842597772563
    -0.010176583325504     0.017275779327187    -0.000163637300909
     0.015488669989857    -0.002652008651989    -0.033428050685078
   5   1
    -0.562072358912828    -0.540654272943376    -0.003776499456896
    -0.541440209192383    -0.549547089225512     0.001126212941763
    -0.003551462440774     0.001176782254836    -0.058049266459431
   5   2
     0.001275909515764    -0.060462452449499     0.005976997466697
    -0.061267343394577    -0.014795598966727     0.006410663882779
     0.006149926031811     0.006396873966808     0.025501895647313
   5   3
     0.001278403346215    -0.060476664048274     0.005972932035173
    -0.061279341730037    -0.014814560063078     0.006410177799896
     0.006158834972172     0.006396412712176     0.025504618003110
   5   4
    -0.562108723017013    -0.540609828245674    -0.003772715805408
    -0.541502611251791    -0.549557232313041     0.001158709170665
    -0.003554236135812     0.001156434954184    -0.058042471267180
   5   5
     5.528161805568750    -0.225659771552310    -0.118238841386809
    -0.202889774517716     5.515370348275042     0.166654559930531
    -0.123800522593659     0.166493540279124     6.287941430278197
   5   6
    -0.012322622825851     0.010329321891541     0.009914179360352
     0.010361981823306    -0.013740480451492     0.000393131201177
     0.012116998909541     0.002310272976233    -0.008110319856549
   5   7
    -0.028776398384567     0.015385160110916    -0.039108522037080
     0.020481571342857    -0.029020285305231    -0.018358016025335
    -0.040090953811124    -0.004612364811895    -0.021612706627136
   5   8
     0.013366115444068     0.005496059114512     0.016841853050610
    -0.010178621564275     0.017276740890410    -0.000166167058603
     0.015483571214507    -0.002665595803414    -0.033460869459305
   5   9
    -0.852920710643981    -0.014713291617173     0.913469789374015
    -0.006715179165757     0.062128269649664     0.023827323718284
     0.895712705624833     0.025456643527810    -0.815169604966878
   5  10
     0.103082821981175    -0.009695051844876    -0.008003059301251
    -0.011556187801036    -0.836505213159014    -0.921552982085099
    -0.014046241816958    -0.911428966949063    -0.804870623045211
   5  11
    -0.024069125946114     0.017305916010375     0.016156106248525
     0.017527950433246    -0.026861675958791    -0.025141134853959
     0.009377914434352    -0.022738273271818    -0.036310850345866
   5  12
    -0.020290757217851     0.015025154501847     0.024329865724936
     0.025701300800646     0.005666151621921    -0.003147705688365
     0.028770997960360    -0.005862464561823     0.010125826313360
   5  13
     0.000995770668463     0.004862062908724    -0.031138071930941
    -0.005783326187874    -0.010573692636636     0.030318882722488
    -0.024282325645650     0.017891962028185    -0.024909772107649
   5  14
    -0.782509822753601    -0.007425532984667    -0.840245127994454
    -0.008140698322052     0.080293112715894    -0.011780284174379
    -0.837543287853908    -0.014790807609754    -0.747037226342347
   5  15
     0.098516746011012    -0.013133426319890    -0.000797280832353
    -0.016469011389688    -0.753681046681908     0.830518317642844
     0.008678311272478     0.830206974130857    -0.722624613731763
   5  16
     0.007364686054566    -0.009071044957940     0.008282015971007
     0.007940476433739    -0.103926459237800     0.007664942130292
     0.000904515059012     0.002909537626832     0.017938664786802
   5  17
    -0.640940310162320     0.686751694966567    -0.003142156108786
     0.683107746997369    -0.628038175500844     0.006159575545954
     0.002982300543268     0.000572282006202     0.058626916160993
   5  18
    -0.060814195224403     0.007965967013529    -0.005068776538187
     0.001638902196841    -0.009423686111214    -0.006368784624969
     0.002223187137877    -0.007264998030115     0.023395531498664
   5  19
    -0.060817627400961     0.007967549179549    -0.005064180655011
     0.001606409493449    -0.009409185796532    -0.006379799875268
     0.002221034943499    -0.007260209232458     0.023393003425493
   5  20
    -0.641096533092755     0.686918592379400    -0.003178446117243
     0.683252669894789    -0.628153126729832     0.006202688712385
     0.002970749083306     0.000585027319262     0.058639591542237
   5  21
     0.098458949999246    -0.013086433213359    -0.000817593158868
    -0.016417406598232    -0.753102550532208     0.829500973460762
     0.008620750487477     0.829303326300231    -0.721485868183118
   5  22
    -0.783036561919936    -0.007252390167218    -0.840708714111928
    -0.007975704883423     0.080336334397242    -0.011583798424742
    -0.838026914983241    -0.014582514109163    -0.747348157055044
   5  23
     0.000992968943160     0.004857792209259    -0.031143822905719
    -0.005786321882678    -0.010566189009098     0.030327394695438