30
Lattice="-4.14065133063786 -2.0813245047671174 6.07468949379772 6.194088711716078 0.0112319386582009 6.067058026342063 0.0229071007979709 8.255721435553086 -0.0080027823321199" Properties=Z:I:1:pos:R:3:vasp_force:R:3 uuid=5980fb58-3e58-4f1d-9fd6-a35c62b37a70 vasp_virial="-0.39430186527868616 -0.18582996333421437 -0.0014409681250249424 -0.18582996333421437 0.04929015631251238 0.38196317184938056 -0.0014409681250249424 0.38196317184938056 0.28241359815371136" vasp_energy=-95.08639878 pbc="T T T"
      46      -0.00080092       2.05940117       2.02949785       0.03052000       0.01217600      -0.05064500 
      46       2.07614779       4.13178078       2.01842046      -0.00444400      -0.00529200      -0.00009100 
      46       0.00702589       4.12011185       8.08998311       0.00001800      -0.00167900       0.00002100 
      46       2.07855531       6.18976742       8.08685626       0.00004000      -0.00131700      -0.00006200 
      46       4.12717764       0.00370156       8.09173219      -0.00470400      -0.00510500      -0.00073100 
      47       0.02228705       4.11132149       4.01139092       0.00324300       0.00260200       0.00228100 
      47       2.09381648       6.18097707       4.00826407       0.00214900      -0.00219700      -0.00216400 
      47       0.02469457       6.16930814      10.07982672       0.00235700      -0.00213100      -0.00210600 
      47       2.07331690      -0.01675772      10.08470265       0.00229200      -0.00262500      -0.00259600 
      47      -2.04924238       2.04166591       4.01451777      -0.00953200      -0.00263600       0.01041800 
      47      -4.11610261       2.03359081       6.08177243      -0.00058200      -0.00855000       0.01074600 
      47      -2.04457318       4.10324639       6.07864558      -0.00163600      -0.00078500       0.00306400 
      47       0.02695625       6.17290197       6.07551874      -0.00081000       0.00032800       0.00253800 
      47       2.07557858      -0.01316389       6.08039467      -0.00025600       0.00006900       0.00247600 
      47       4.14710801       2.05649168       6.07726782       0.00190100       0.00096200       0.00419100 
      47       4.13861494       4.13152202       8.08766830      -0.00174800       0.00165800      -0.00110000 
      47       0.01605566       6.18994566       2.01748342      -0.00002600      -0.00061000      -0.00082200 
      47       2.06467799       0.00387980       2.02235935      -0.00164700       0.00132400      -0.00079600 
      47      -0.00444391      -0.00778913       8.09392200      -0.00018500      -0.00090000      -0.00003400 
      47       2.06708552       2.06186645       8.09079515      -0.00016200      -0.00065100      -0.00019400 
      47      -2.06387327       6.19486703       4.03094389      -0.00004000       0.00089100      -0.00156600 
      47      -0.01525095       0.00880117       4.03581982       0.00070000      -0.00824700       0.00611400 
      47       2.05627848       2.07845674       4.03269297       0.00358300       0.00210600      -0.00096200 
      47       4.12780791       4.14811232       4.02956612       0.00087800       0.00075200      -0.00229500 
      47       2.05868601       4.13644339      10.10112877      -0.00006800       0.00029900      -0.00233500 
      47      -2.08220504       0.00077768       6.10310564      -0.01356300       0.00256600       0.01369800 
      47      -0.01067562       2.07043326       6.09997879      -0.00249000       0.00296400       0.00213700 
      47       2.06085381       4.14008883       6.09685194      -0.00215700       0.00312400       0.00140300 
      47       4.13238324       6.20974441       6.09372509      -0.00229200       0.00327700       0.00333500 
      47      -0.01308314       0.01244661       0.03154299      -0.00133700       0.00762600       0.00607700 
30
Lattice="-4.14065133063786 -2.0813245047671174 6.07468949379772 6.194088711716078 0.0112319386582009 6.067058026342063 0.0229071007979709 8.255721435553086 -0.0080027823321199" Properties=Z:I:1:pos:R:3:vasp_force:R:3 uuid=359186b7-41a2-4cb0-a974-5527142c92ed vasp_virial="-0.3922664170303326 -0.18306110754240634 0.003673499457742958 -0.18306110754240634 0.05180054248548185 0.3824962654382352 0.003673499457742958 0.3824962654382352 0.28930181349575873" vasp_energy=-95.08642906 pbc="T T T"
      46       0.00461836       2.06212520       2.02154731       0.00045700      -0.00703000      -0.00689500 
      46       2.07614779       4.13178078       2.01842046       0.00025700      -0.00080500       0.00017000 
      46       0.00702589       4.12011185       8.08998311       0.00043700      -0.00132200       0.00005200 
      46       2.07855531       6.18976742       8.08685626      -0.00022700      -0.00086500      -0.00033500 
      46       4.12717764       0.00370156       8.09173219      -0.00015500      -0.00050000      -0.00112400 
      47       0.01514311       4.11130854       4.00439349       0.04061900      -0.00291200       0.03657700 
      47       2.09381648       6.18097707       4.00826407      -0.00209100      -0.00712000      -0.00145400 
      47       0.02469457       6.16930814      10.07982672       0.00231800      -0.00213200      -0.00193600 
      47       2.07331690      -0.01675772      10.08470265       0.00255900      -0.00271300      -0.00288800 
      47      -2.04924238       2.04166591       4.01451777      -0.00196400      -0.00759000      -0.00045300 
      47      -4.11610261       2.03359081       6.08177243      -0.00089800      -0.00002100       0.00255200 
      47      -2.04457318       4.10324639       6.07864558      -0.00090600      -0.00093900       0.00333000 
      47       0.02695625       6.17290197       6.07551874       0.00022300      -0.00488100      -0.00193300 
      47       2.07557858      -0.01316389       6.08039467      -0.00057900       0.00021500       0.00221000 
      47       4.14710801       2.05649168       6.07726782      -0.00102800       0.00072000       0.00246100 
      47       4.13861494       4.13152202       8.08766830      -0.01259800      -0.00022500      -0.01236400 
      47       0.01605566       6.18994566       2.01748342       0.00095900       0.00611300      -0.00588900 
      47       2.06467799       0.00387980       2.02235935       0.00003200      -0.00079400      -0.00046500 
      47      -0.00444391      -0.00778913       8.09392200       0.00016000      -0.00093700       0.00035300 
      47       2.06708552       2.06186645       8.09079515      -0.00025400      -0.00069700      -0.00042400 
      47      -2.06387327       6.19486703       4.03094389      -0.00368200       0.00517100      -0.00095800 
      47      -0.01525095       0.00880117       4.03581982       0.00045200       0.00068400      -0.00178000 
      47       2.05627848       2.07845674       4.03269297      -0.00439900       0.00828900      -0.00139300 
      47       4.12780791       4.14811232       4.02956612       0.00023800       0.00090700      -0.00224400 
      47       2.05868601       4.13644339      10.10112877      -0.00017000       0.00012400      -0.00223500 
      47      -2.08220504       0.00077768       6.10310564      -0.00209300       0.00266200       0.00245500 
      47      -0.01067562       2.07043326       6.09997879      -0.00146600       0.00772900      -0.00241400 
      47       2.06085381       4.14008883       6.09685194      -0.01156500       0.00286500      -0.00796400 
      47       4.13238324       6.20974441       6.09372509      -0.00261500       0.00337800       0.00273400 
      47      -0.01308314       0.01244661       0.03154299      -0.00202100       0.00262600       0.00225800 
30
Lattice="-4.14065133063786 -2.0813245047671174 6.07468949379772 6.194088711716078 0.0112319386582009 6.067058026342063 0.0229071007979709 8.255721435553086 -0.0080027823321199" Properties=Z:I:1:pos:R:3:vasp_force:R:3 uuid=74cf4609-3e43-4ae2-9b76-abe19beb9103 vasp_virial="-0.39951972070898945 -0.18143597981395895 -0.0009983389027639175 -0.18143597981395895 0.04365228775159641 0.37567589837113285 -0.0009983389027639175 0.37567589837113285 0.2814637223044796" vasp_energy=-95.08642159 pbc="T T T"
      46       0.00461836       2.06212520       2.02154731      -0.00013700       0.00779900       0.00785500 
      46       2.07614779       4.13178078       2.01842046       0.00015500      -0.00156200      -0.00079000 
      46       0.00702589       4.12011185       8.08998311       0.00018500      -0.00143500       0.00022200 
      46       2.07855531       6.18976742       8.08685626       0.00011300      -0.00060800       0.00017000 
      46       4.12717764       0.00370156       8.09173219      -0.00022400      -0.00045400      -0.00115600 
      47       0.02231480       4.12132145       4.01138123       0.00351800      -0.05455100      -0.00206300 
      47       2.09381648       6.18097707       4.00826407       0.00944000       0.00387700      -0.00225700 
      47       0.02469457       6.16930814      10.07982672       0.00216100      -0.00223800      -0.00199500 
      47       2.07331690      -0.01675772      10.08470265       0.00238900      -0.00278800      -0.00298300 
      47      -2.04924238       2.04166591       4.01451777       0.00946700       0.00335400      -0.00138600 
      47      -4.11610261       2.03359081       6.08177243      -0.00084400      -0.00013900       0.00288100 
      47      -2.04457318       4.10324639       6.07864558      -0.00139700      -0.00192200       0.00262100 
      47       0.02695625       6.17290197       6.07551874      -0.00043700       0.00644000       0.00977500 
      47       2.07557858      -0.01316389       6.08039467      -0.00041600       0.00062200       0.00243300 
      47       4.14710801       2.05649168       6.07726782      -0.00051900       0.00092200       0.00298000 
      47       4.13861494       4.13152202       8.08766830      -0.00009500      -0.00182100      -0.00058600 
      47       0.01605566       6.18994566       2.01748342      -0.00011300       0.00783000      -0.00957900 
      47       2.06467799       0.00387980       2.02235935      -0.00001600      -0.00020300      -0.00018800 
      47      -0.00444391      -0.00778913       8.09392200       0.00010200      -0.00099400       0.00023400 
      47       2.06708552       2.06186645       8.09079515       0.00031100      -0.00062200      -0.00004200 
      47      -2.06387327       6.19486703       4.03094389      -0.00615100       0.00602800      -0.00182700 
      47      -0.01525095       0.00880117       4.03581982       0.00024100       0.00195200      -0.00206000 
      47       2.05627848       2.07845674       4.03269297      -0.00780500       0.00949900      -0.00244800 
      47       4.12780791       4.14811232       4.02956612       0.00066000       0.00072800      -0.00231600 
      47       2.05868601       4.13644339      10.10112877       0.00020000      -0.00000600      -0.00225100 
      47      -2.08220504       0.00077768       6.10310564      -0.00217600       0.00327900       0.00264500 
      47      -0.01067562       2.07043326       6.09997879      -0.00223000       0.00855300      -0.00527500 
      47       2.06085381       4.14008883       6.09685194      -0.00219900       0.00187400       0.00168700 
      47       4.13238324       6.20974441       6.09372509      -0.00207800       0.00346300       0.00305000 
      47      -0.01308314       0.01244661       0.03154299      -0.00210700       0.00312200       0.00265100 
30
Lattice="-4.14065133063786 -2.0813245047671174 6.07468949379772 6.194088711716078 0.0112319386582009 6.067058026342063 0.0229071007979709 8.255721435553086 -0.0080027823321199" Properties=Z:I:1:pos:R:3:vasp_force:R:3 uuid=969e9710-0331-4f68-a63a-22462803445b vasp_virial="-0.38875123021412816 -0.19157445061290124 -0.0010500328265316283 -0.19157445061290124 0.055477272813460286 0.3881987514038608 -0.0010500328265316283 0.3881987514038608 0.28486582866244214" vasp_energy=-95.08646412 pbc="T T T"
      46       0.00461836       2.06212520       2.02154731      -0.00034500      -0.00892900      -0.01037000 
      46       2.07614779       4.13178078       2.01842046      -0.00022700      -0.00032600      -0.00022300 
      46       0.00702589       4.12011185       8.08998311       0.00027100      -0.00110500       0.00016500 
      46       2.07855531       6.18976742       8.08685626       0.00039900      -0.00120400       0.00007200 
      46       4.12717764       0.00370156       8.09173219      -0.00004000      -0.00073700      -0.00111800 
      47       0.02225930       4.10132153       4.01140062       0.00207300       0.05060200      -0.00120800 
      47       2.09381648       6.18097707       4.00826407      -0.00460600      -0.00810300      -0.00225900 
      47       0.02469457       6.16930814      10.07982672       0.00212900      -0.00212200      -0.00198300 
      47       2.07331690      -0.01675772      10.08470265       0.00235700      -0.00267200      -0.00287800 
      47      -2.04924238       2.04166591       4.01451777      -0.00466500      -0.00862600      -0.00126400 
      47      -4.11610261       2.03359081       6.08177243      -0.00110600       0.00011100       0.00296600 
      47      -2.04457318       4.10324639       6.07864558      -0.00153000      -0.00006800       0.00292300 
      47       0.02695625       6.17290197       6.07551874      -0.00063700      -0.00589000      -0.00446600 
      47       2.07557858      -0.01316389       6.08039467      -0.00045100      -0.00020900       0.00235300 
      47       4.14710801       2.05649168       6.07726782      -0.00046500       0.00040100       0.00272200 
      47       4.13861494       4.13152202       8.08766830      -0.00009000       0.00110000      -0.00058300 
      47       0.01605566       6.18994566       2.01748342      -0.00004200      -0.00811300       0.00782200 
      47       2.06467799       0.00387980       2.02235935       0.00001000      -0.00116600      -0.00043300 
      47      -0.00444391      -0.00778913       8.09392200       0.00022700      -0.00096800       0.00021500 
      47       2.06708552       2.06186645       8.09079515       0.00005700      -0.00084800       0.00017000 
      47      -2.06387327       6.19486703       4.03094389       0.00615900      -0.00448800      -0.00186400 
      47      -0.01525095       0.00880117       4.03581982       0.00028200      -0.00067200      -0.00194600 
      47       2.05627848       2.07845674       4.03269297       0.01050300      -0.00612500      -0.00210700 
      47       4.12780791       4.14811232       4.02956612       0.00073700       0.00105000      -0.00244800 
      47       2.05868601       4.13644339      10.10112877       0.00021600       0.00029900      -0.00244800 
      47      -2.08220504       0.00077768       6.10310564      -0.00202400       0.00208300       0.00236700 
      47      -0.01067562       2.07043326       6.09997879      -0.00259000      -0.00301900       0.00915500 
      47       2.06085381       4.14008883       6.09685194      -0.00256800       0.00427800       0.00132600 
      47       4.13238324       6.20974441       6.09372509      -0.00222600       0.00307600       0.00343600 
      47      -0.01308314       0.01244661       0.03154299      -0.00181000       0.00238900       0.00190500 
30
Lattice="-4.14065133063786 -2.0813245047671174 6.07468949379772 6.194088711716078 0.0112319386582009 6.067058026342063 0.0229071007979709 8.255721435553086 -0.0080027823321199" Properties=Z:I:1:pos:R:3:vasp_force:R:3 uuid=25b15b0c-4643-43ea-89e7-c87666817e42 vasp_virial="-0.3893941733909891 -0.18501578403487293 -0.004319673504839345 -0.18501578403487293 0.054003995986080515 0.37978556531066576 -0.004319673504839345 0.37978556531066576 0.2915181904772994" vasp_energy=-95.08648387 pbc="T T T"
      46       0.00461836       2.06212520       2.02154731       0.00030800      -0.00933100       0.00713400 
      46       2.07614779       4.13178078       2.01842046       0.00241600      -0.00065100       0.00082700 
      46       0.00702589       4.12011185       8.08998311       0.00051100      -0.00154600       0.00031800 
      46       2.07855531       6.18976742       8.08685626       0.00001500      -0.00069900       0.00018100 
      46       4.12717764       0.00370156       8.09173219      -0.00032500      -0.00035100      -0.00085400 
      47       0.02228705       4.11132149       4.01139092       0.00238800      -0.00240700      -0.00085900 
      47       2.09381648       6.18097707       4.00826407       0.00235800      -0.00213600      -0.00227600 
      47       0.02469457       6.16930814      10.07982672       0.00215800      -0.00224700      -0.00190300 
      47       2.07331690      -0.01675772      10.08470265       0.00304100       0.00118900       0.00008600 
      47      -2.04924238       2.04166591       4.01451777      -0.00634900      -0.00240000       0.00757800 
      47       0.01912945       4.11219129       0.01503348       0.02635500       0.01287000      -0.03792900 
      47      -2.04457318       4.10324639       6.07864558      -0.00654900      -0.00628700       0.00178400 
      47       0.02695625       6.17290197       6.07551874      -0.00044800       0.00013000       0.00244700 
      47       2.07557858      -0.01316389       6.08039467      -0.00028300       0.00019200       0.00237200 
      47       4.14710801       2.05649168       6.07726782      -0.00581600      -0.00484000       0.00170600 
      47       4.13861494       4.13152202       8.08766830      -0.01119400      -0.00014800       0.00981800 
      47       0.01605566       6.18994566       2.01748342       0.00077500       0.00453600       0.00254200 
      47       2.06467799       0.00387980       2.02235935      -0.00002300      -0.00074200      -0.00028100 
      47      -0.00444391      -0.00778913       8.09392200       0.00028900      -0.00089000       0.00024600 
      47       2.06708552       2.06186645       8.09079515      -0.00006300      -0.00077600       0.00063700 
      47      -2.06387327       6.19486703       4.03094389      -0.00021400       0.00075900      -0.00139000 
      47      -0.01525095       0.00880117       4.03581982       0.00000400       0.00046500      -0.00169500 
      47       2.05627848       2.07845674       4.03269297       0.00129900       0.00165700      -0.00218400 
      47       4.12780791       4.14811232       4.02956612       0.00281100       0.00118700      -0.00112600 
      47       2.05868601       4.13644339      10.10112877       0.00088400      -0.00676700       0.00407700 
      47      -2.08220504       0.00077768       6.10310564      -0.00380200       0.00540700       0.00139600 
      47      -0.01067562       2.07043326       6.09997879      -0.00271100       0.00299800       0.00161600 
      47       2.06085381       4.14008883       6.09685194      -0.00263600       0.00322600       0.00136500 
      47       4.13238324       6.20974441       6.09372509      -0.00336200       0.00521400       0.00229700 
      47      -0.01308314       0.01244661       0.03154299      -0.00183600       0.00238700       0.00207300 
30
Lattice="-4.14065133063786 -2.0813245047671174 6.07468949379772 6.194088711716078 0.0112319386582009 6.067058026342063 0.0229071007979709 8.255721435553086 -0.0080027823321199" Properties=Z:I:1:pos:R:3:vasp_force:R:3 uuid=c6f4fe84-c8e6-46fb-839c-4c8d78d09651 vasp_virial="-0.3973970389642778 -0.18667645133591065 0.0003780118175513862 -0.18667645133591065 0.04582343254984027 0.3831165925234477 0.0003780118175513862 0.3831165925234477 0.2764235647371278" vasp_energy=-95.08641748 pbc="T T T"
      46       0.00461836       2.06212520       2.02154731      -0.00071000       0.00815000      -0.00898900 
      46       2.07614779       4.13178078       2.01842046      -0.00243200      -0.00119600      -0.00190100 
      46       0.00702589       4.12011185       8.08998311      -0.00002600      -0.00095300       0.00007100 
      46       2.07855531       6.18976742       8.08685626       0.00052500      -0.00107100       0.00005100 
      46       4.12717764       0.00370156       8.09173219       0.00009500      -0.00080400      -0.00142600 
      47       0.02228705       4.11132149       4.01139092       0.00283600      -0.00227800      -0.00225600 
      47       2.09381648       6.18097707       4.00826407       0.00224600      -0.00224000      -0.00224300 
      47       0.02469457       6.16930814      10.07982672       0.00215500      -0.00207600      -0.00208100 
      47       2.07331690      -0.01675772      10.08470265       0.00171800      -0.00667700      -0.00597400 
      47      -2.04924238       2.04166591       4.01451777       0.01187600      -0.00267300      -0.01064500 
      47      -4.11068333       2.03631485       6.07382189      -0.02860900      -0.01320500       0.04348400 
      47      -2.04457318       4.10324639       6.07864558       0.00376500       0.00448300       0.00382500 
      47       0.02695625       6.17290197       6.07551874      -0.00059600       0.00026100       0.00259000 
      47       2.07557858      -0.01316389       6.08039467      -0.00055800       0.00025800       0.00240500 
      47       4.14710801       2.05649168       6.07726782       0.00472600       0.00605100       0.00394400 
      47       4.13861494       4.13152202       8.08766830       0.01051000      -0.00050400      -0.01057500 
      47       0.01605566       6.18994566       2.01748342      -0.00087300      -0.00495600      -0.00396300 
      47       2.06467799       0.00387980       2.02235935       0.00004600      -0.00059200      -0.00034200 
      47      -0.00444391      -0.00778913       8.09392200       0.00006700      -0.00103500       0.00019400 
      47       2.06708552       2.06186645       8.09079515       0.00045600      -0.00065800      -0.00051000 
      47      -2.06387327       6.19486703       4.03094389       0.00048500       0.00064800      -0.00230500 
      47      -0.01525095       0.00880117       4.03581982       0.00055100       0.00084900      -0.00230900 
      47       2.05627848       2.07845674       4.03269297       0.00111400       0.00197900      -0.00237300 
      47       4.12780791       4.14811232       4.02956612      -0.00138500       0.00062400      -0.00362200 
      47       2.05868601       4.13644339      10.10112877      -0.00049000       0.00737400      -0.00901100 
      47      -2.08220504       0.00077768       6.10310564      -0.00038700      -0.00000600       0.00363000 
      47      -0.01067562       2.07043326       6.09997879      -0.00207900       0.00275300       0.00200100 
      47       2.06085381       4.14008883       6.09685194      -0.00207300       0.00296500       0.00166800 
      47       4.13238324       6.20974441       6.09372509      -0.00090400       0.00136700       0.00417000 
      47      -0.01308314       0.01244661       0.03154299      -0.00205000       0.00316200       0.00249000 
30
Lattice="-4.14065133063786 -2.0813245047671174 6.07468949379772 6.194088711716078 0.0112319386582009 6.067058026342063 0.0229071007979709 8.255721435553086 -0.0080027823321199" Properties=Z:I:1:pos:R:3:vasp_force:R:3 uuid=8f372568-75c4-497f-af7f-243b600a3c5e vasp_virial="-0.38551712910841074 -0.19000424767845703 0.0029853240975853067 -0.19000424767845703 0.05863060216329064 0.3817370109328969 0.0029853240975853067 0.3817370109328969 0.2921740571351022" vasp_energy=-95.08646374 pbc="T T T"
      46       0.00461836       2.06212520       2.02154731      -0.00094900      -0.00618300       0.00395700 
      46       2.07614779       4.13178078       2.01842046       0.01175900      -0.00080600       0.01099100 
      46       0.00702589       4.12011185       8.08998311       0.00044500      -0.00143700       0.00054300 
      46       2.07855531       6.18976742       8.08685626       0.00023800      -0.00106700      -0.00015500 
      46       4.12717764       0.00370156       8.09173219      -0.00007000      -0.00054400      -0.00094900 
      47       0.02228705       4.11132149       4.01139092       0.00248300      -0.00230300      -0.00116000 
      47       2.09381648       6.18097707       4.00826407       0.00276700      -0.00213800      -0.00182400 
      47       0.02469457       6.16930814      10.07982672       0.00230400      -0.00214400      -0.00184100 
      47       2.07331690      -0.01675772      10.08470265       0.00156400       0.00227200       0.00156200 
      47      -2.04924238       2.04166591       4.01451777       0.00202100      -0.00260500      -0.00194700 
      47      -4.10895867       2.03360377       6.08876986      -0.03801200       0.00100900      -0.03305600 
      47      -2.04457318       4.10324639       6.07864558       0.00297200       0.00415500       0.00176200 
      47       0.02695625       6.17290197       6.07551874      -0.00071300       0.00013800       0.00247800 
      47       2.07557858      -0.01316389       6.08039467      -0.00054600       0.00014800       0.00228300 
      47       4.14710801       2.05649168       6.07726782       0.00378200       0.00557400       0.00195900 
      47       4.13861494       4.13152202       8.08766830      -0.00058700      -0.00043800      -0.00155100 
      47       0.01605566       6.18994566       2.01748342      -0.00113700       0.00580500       0.00421500 
      47       2.06467799       0.00387980       2.02235935       0.00004500      -0.00060600      -0.00025300 
      47      -0.00444391      -0.00778913       8.09392200       0.00054500      -0.00090100       0.00061600 
      47       2.06708552       2.06186645       8.09079515       0.00012700      -0.00067200       0.00030600 
      47      -2.06387327       6.19486703       4.03094389       0.00008000       0.00080600      -0.00176200 
      47      -0.01525095       0.00880117       4.03581982       0.00027100       0.00042300      -0.00206300 
      47       2.05627848       2.07845674       4.03269297       0.00155500       0.00181200      -0.00187300 
      47       4.12780791       4.14811232       4.02956612       0.01025500       0.00074900       0.00697900 
      47       2.05868601       4.13644339      10.10112877      -0.00040400      -0.00461200       0.00188000 
      47      -2.08220504       0.00077768       6.10310564       0.00367700      -0.00406700       0.00148000 
      47      -0.01067562       2.07043326       6.09997879      -0.00193100       0.00286900       0.00163800 
      47       2.06085381       4.14008883       6.09685194      -0.00196100       0.00313300       0.00136200 
      47       4.13238324       6.20974441       6.09372509       0.00158400      -0.00106700       0.00236300 
      47      -0.01308314       0.01244661       0.03154299      -0.00216400       0.00269900       0.00206100 
30
Lattice="-4.14065133063786 -2.0813245047671174 6.07468949379772 6.194088711716078 0.0112319386582009 6.067058026342063 0.0229071007979709 8.255721435553086 -0.0080027823321199" Properties=Z:I:1:pos:R:3:vasp_force:R:3 uuid=9eab942c-e4c9-4d91-97d1-f4743ce2713e vasp_virial="-0.40189441033206863 -0.18256355352614212 -0.003931969076581513 -0.18256355352614212 0.040360030981640316 0.3821085610099773 -0.003931969076581513 0.3821085610099773 0.27477582091703195" vasp_energy=-95.08642748 pbc="T T T"
      46       0.00461836       2.06212520       2.02154731       0.00044400       0.00519100      -0.00603200 
      46       2.07614779       4.13178078       2.01842046      -0.01118500      -0.00107800      -0.01145300 
      46       0.00702589       4.12011185       8.08998311       0.00001800      -0.00109200      -0.00017400 
      46       2.07855531       6.18976742       8.08685626       0.00028700      -0.00073700       0.00037200 
      46       4.12717764       0.00370156       8.09173219      -0.00018900      -0.00064200      -0.00134600 
      47       0.02228705       4.11132149       4.01139092       0.00271300      -0.00241600      -0.00197000 
      47       2.09381648       6.18097707       4.00826407       0.00181400      -0.00226400      -0.00270900 
      47       0.02469457       6.16930814      10.07982672       0.00198900      -0.00221000      -0.00215800 
      47       2.07331690      -0.01675772      10.08470265       0.00323400      -0.00784700      -0.00752600 
      47      -2.04924238       2.04166591       4.01451777       0.00302000      -0.00247200      -0.00069700 
      47      -4.12324654       2.03357786       6.07477501       0.03614500      -0.00043900       0.03904700 
      47      -2.04457318       4.10324639       6.07864558      -0.00582700      -0.00601800       0.00374300 
      47       0.02695625       6.17290197       6.07551874      -0.00035300       0.00022200       0.00254100 
      47       2.07557858      -0.01316389       6.08039467      -0.00031700       0.00027000       0.00248000 
      47       4.14710801       2.05649168       6.07726782      -0.00484300      -0.00436700       0.00376100 
      47       4.13861494       4.13152202       8.08766830       0.00041200      -0.00027800       0.00030200 
      47       0.01605566       6.18994566       2.01748342       0.00094900      -0.00619400      -0.00558900 
      47       2.06467799       0.00387980       2.02235935      -0.00004500      -0.00075900      -0.00038800 
      47      -0.00444391      -0.00778913       8.09392200      -0.00020900      -0.00106100      -0.00019400 
      47       2.06708552       2.06186645       8.09079515       0.00025200      -0.00079300      -0.00019600 
      47      -2.06387327       6.19486703       4.03094389       0.00017200       0.00056600      -0.00195300 
      47      -0.01525095       0.00880117       4.03581982       0.00025900       0.00086600      -0.00196100 