30
Lattice="-7.938836345914365 -1.9810586779925485 2.0170302436453444 -1.9801537701324525 -7.943129452457191 -2.017597337070121 5.968778520923643 -0.0169778335175474 6.09282790870499" Properties=Z:I:1:pos:R:3:vasp_force:R:3 uuid=bb9578c5-2da9-427a-bbe6-c53cc7bf4178 vasp_virial="0.0008211120017542639 -0.09537185932784471 0.06272216860115601 -0.09537185932784471 0.004713902112260793 -0.11366108030122528 0.06272216860115601 -0.11366108030122528 -0.1454327206026804" vasp_energy=-132.33926959 pbc="T T T"
      46      -7.94407887      -7.94310056       0.05823888       0.06509400       0.01691200      -0.01861200 
      46      -5.95086038      -5.95591215       0.05595883      -0.01035200      -0.00813500      -0.00115900 
      46      -3.96706236      -3.97107453       0.05607224      -0.00018200       0.00228800      -0.00069800 
      46      -1.98326433      -1.98623690       0.05618566      -0.00016700       0.00300800      -0.00047300 
      46      -1.97962008      -7.94452873      -1.96129825      -0.01013100      -0.00904300      -0.00051900 
      46      -1.98004230      -5.95891335       0.02857887      -0.01150800       0.00383800       0.00921500 
      46       0.00375572      -3.97407572       0.02869229       0.00034300       0.00464600      -0.00086300 
      46      -5.95128260      -3.97029677       2.04583595      -0.00077300       0.00220800      -0.00178800 
      46      -3.96748458      -1.98545915       2.04594937      -0.00693200       0.01006600      -0.00164900 
      46      -3.96384033      -7.94375097       0.02846545      -0.00320400       0.00363400      -0.00032100 
      46      -3.96083733      -5.96049097       2.00858258       0.00128900      -0.00438100       0.00053300 
      46      -1.97703931      -3.97565335       2.00869600       0.00139100      -0.00229000       0.00212600 
      46       0.00675872      -1.99081572       2.00880942       0.00105800      -0.00353800       0.00143400 
      46      -5.94827961      -1.98703677       4.02595308       0.00178200      -0.00902600       0.00711600 
      46      -5.94463535      -7.94532860       2.00846917      -0.00629700      -0.00357100      -0.00752300 
      46      -1.97381739      -7.94832954       1.98108924      -0.00001300      -0.00272400       0.00132900 
      46       0.00998063      -5.96349191       1.98120266      -0.00070500      -0.00142500       0.00155200 
      46      -5.94505769      -5.95971296       3.99834632      -0.00045500      -0.00268800       0.00020200 
      46      -3.96125967      -3.97487534       3.99845974      -0.00035600      -0.00266500       0.00032700 
      46      -1.97746165      -1.99003771       3.99857316      -0.00059000      -0.00223100       0.00105400 
      47      -1.96473581      -5.97293994       4.04478450      -0.00225000      -0.00210000       0.00459700 
      47       0.01906221      -3.98810232       4.04489792      -0.00261200       0.00130900       0.00049900 
      47       2.00286023      -2.00326469       4.04501134      -0.00192300       0.00196800       0.00139300 
      47      -3.95217809      -1.99948574       6.06215500      -0.00235500       0.00190900       0.00175400 
      47      -3.94853384      -7.95777757       4.04467108      -0.00681100       0.00128000      -0.00424000 
      47       0.00883654      -7.94827957       4.08509188      -0.00683400      -0.00124100       0.01111100 
      47       1.99263456      -5.96344195       4.08520530       0.00145300      -0.00111900      -0.00187500 
      47       3.97643259      -3.97860432       4.08531872      -0.00403200       0.00645900      -0.00229400 
      47      -1.97860574      -3.97482537       6.10246238       0.00221800      -0.00217600      -0.00133300 
      47       0.00519229      -1.98998775       6.10257580       0.00385100      -0.00117300      -0.00089800 
30
Lattice="-7.938836345914365 -1.9810586779925485 2.0170302436453444 -1.9801537701324525 -7.943129452457191 -2.017597337070121 5.968778520923643 -0.0169778335175474 6.09282790870499" Properties=Z:I:1:pos:R:3:vasp_force:R:3 uuid=44c9628e-2930-4661-81f8-544e07fd0d5a vasp_virial="0.008642653332333203 -0.09237809695648518 0.07327675425874183 -0.09237809695648518 -0.004414226199211791 -0.10538702834194233 0.07327675425874183 -0.10538702834194233 -0.14445877388527115" vasp_energy=-132.33928169 pbc="T T T"
      46      -7.93465840      -7.94074978       0.05584541       0.00020400       0.00055000      -0.00197000 
      46      -5.95086038      -5.95591215       0.05595883       0.00077200       0.00273800      -0.00151900 
      46      -3.96706236      -3.97107453       0.05607224      -0.00713100       0.00840400      -0.00078800 
      46      -1.98326433      -1.98623690       0.05618566       0.00075000       0.00444400      -0.00000900 
      46      -1.97962008      -7.94452873      -1.96129825       0.00003300       0.01287100       0.01224600 
      46      -1.97769370      -5.94949223       0.03097189      -0.01913700      -0.06630700      -0.01854200 
      46       0.00375572      -3.97407572       0.02869229       0.01069900       0.01472200      -0.00146200 
      46      -5.95128260      -3.97029677       2.04583595      -0.00107800       0.00332200      -0.00143700 
      46      -3.96748458      -1.98545915       2.04594937      -0.00154100       0.00337400      -0.00131800 
      46      -3.96384033      -7.94375097       0.02846545       0.00940800       0.01469300      -0.00103200 
      46      -3.96083733      -5.96049097       2.00858258       0.00140900      -0.00458800       0.00016000 
      46      -1.97703931      -3.97565335       2.00869600       0.00136400       0.00833600       0.01427800 
      46       0.00675872      -1.99081572       2.00880942       0.00124700      -0.00048400       0.00213800 
      46      -5.94827961      -1.98703677       4.02595308      -0.00587400       0.00244600       0.00112700 
      46      -5.94463535      -7.94532860       2.00846917       0.00102900      -0.00383000       0.00127100 
      46      -1.97381739      -7.94832954       1.98108924      -0.00067600       0.00423300      -0.00846300 
      46       0.00998063      -5.96349191       1.98120266       0.00518900      -0.00227900       0.00646900 
      46      -5.94505769      -5.95971296       3.99834632      -0.00013200      -0.00288400       0.00054400 
      46      -3.96125967      -3.97487534       3.99845974      -0.00094700      -0.00307900       0.00077000 
      46      -1.97746165      -1.99003771       3.99857316       0.00032100      -0.00216500       0.00040900 
      47      -1.96473581      -5.97293994       4.04478450      -0.00300800       0.00130900       0.00105700 
      47       0.01906221      -3.98810232       4.04489792      -0.00252800       0.00155800       0.00066900 
      47       2.00286023      -2.00326469       4.04501134      -0.00201500       0.00223000       0.00103800 
      47      -3.95217809      -1.99948574       6.06215500      -0.00246300       0.00205900       0.00174100 
      47      -3.94853384      -7.95777757       4.04467108      -0.00225100       0.00103400       0.00216800 
      47       0.00883654      -7.94827957       4.08509188       0.00305800      -0.00141300      -0.00077300 
      47       1.99263456      -5.96344195       4.08520530       0.00662300      -0.00226600       0.00287000 
      47       3.97643259      -3.97860432       4.08531872       0.00207300       0.00389800      -0.00975600 
      47      -1.97860574      -3.97482537       6.10246238       0.00222200      -0.00163300      -0.00110100 
      47       0.00519229      -1.98998775       6.10257580       0.00238000      -0.00129200      -0.00078400 
30
Lattice="-7.938836345914365 -1.9810586779925485 2.0170302436453444 -1.9801537701324525 -7.943129452457191 -2.017597337070121 5.968778520923643 -0.0169778335175474 6.09282790870499" Properties=Z:I:1:pos:R:3:vasp_force:R:3 uuid=e3d0805c-d945-443b-8e13-f33f7878167c vasp_virial="0.014342489198525208 -0.08965703966600025 0.07432861671354384 -0.08965703966600025 0.002721057290484933 -0.10838978099069332 0.07432861671354384 -0.10838978099069332 -0.1310003286302405" vasp_energy=-132.3392233 pbc="T T T"
      46      -7.93465840      -7.94074978       0.05584541      -0.00016600       0.00135000      -0.00292600 
      46      -5.95086038      -5.95591215       0.05595883       0.00092600       0.00273200      -0.00139000 
      46      -3.96706236      -3.97107453       0.05607224       0.00584700      -0.00397700      -0.00172700 
      46      -1.98326433      -1.98623690       0.05618566       0.00052400       0.00327900      -0.00021300 
      46      -1.97962008      -7.94452873      -1.96129825      -0.00024500       0.00896300       0.00589100 
      46      -1.97304434      -5.95893325       0.03572227      -0.05307000       0.00424600      -0.05763500 
      46       0.00375572      -3.97407572       0.02869229       0.00599600       0.01030200      -0.00162200 
      46      -5.95128260      -3.97029677       2.04583595      -0.00049500       0.00283500      -0.00176700 
      46      -3.96748458      -1.98545915       2.04594937      -0.00098900       0.00272900      -0.00187700 
      46      -3.96384033      -7.94375097       0.02846545       0.00487000       0.01048600      -0.00108900 
      46      -3.96083733      -5.96049097       2.00858258       0.00011100      -0.00406400      -0.00012700 
      46      -1.97703931      -3.97565335       2.00869600       0.00088100       0.00495100       0.00873500 
      46       0.00675872      -1.99081572       2.00880942       0.00085400      -0.00202000       0.00161600 
      46      -5.94827961      -1.98703677       4.02595308       0.00685200      -0.01017200       0.00102300 
      46      -5.94463535      -7.94532860       2.00846917       0.00136800      -0.00374500       0.00130800 
      46      -1.97381739      -7.94832954       1.98108924      -0.00140200      -0.01138500       0.00855800 
      46       0.00998063      -5.96349191       1.98120266       0.01629000      -0.00102100       0.01787400 
      46      -5.94505769      -5.95971296       3.99834632      -0.00019000      -0.00237500       0.00097500 
      46      -3.96125967      -3.97487534       3.99845974      -0.00077500      -0.00296600       0.00039900 
      46      -1.97746165      -1.99003771       3.99857316      -0.00034700      -0.00238600       0.00082100 
      47      -1.96473581      -5.97293994       4.04478450      -0.00303900       0.00141200       0.00142600 
      47       0.01906221      -3.98810232       4.04489792      -0.00243300       0.00141600       0.00080600 
      47       2.00286023      -2.00326469       4.04501134      -0.00193500       0.00172400       0.00143000 
      47      -3.95217809      -1.99948574       6.06215500      -0.00218300       0.00202200       0.00208700 
      47      -3.94853384      -7.95777757       4.04467108      -0.00222200       0.00106900       0.00247100 
      47       0.00883654      -7.94827957       4.08509188       0.00309700      -0.00149100      -0.00051400 
      47       1.99263456      -5.96344195       4.08520530       0.01551300      -0.00115900       0.01223100 
      47       3.97643259      -3.97860432       4.08531872       0.00159400      -0.00913800       0.00475500 
      47      -1.97860574      -3.97482537       6.10246238       0.00200600      -0.00179500      -0.00104600 
      47       0.00519229      -1.98998775       6.10257580       0.00276200      -0.00182300      -0.00047500 
30
Lattice="-7.938836345914365 -1.9810586779925485 2.0170302436453444 -1.9801537701324525 -7.943129452457191 -2.017597337070121 5.968778520923643 -0.0169778335175474 6.09282790870499" Properties=Z:I:1:pos:R:3:vasp_force:R:3 uuid=739c36f2-1041-44bb-ac23-e4a03f351133 vasp_virial="-0.005765764567062788 -0.09367869041911786 0.06774473690385727 -0.09367869041911786 -0.009799402356702349 -0.10792528332546739 0.06774473690385727 -0.10792528332546739 -0.14810283298794702" vasp_energy=-132.33927809 pbc="T T T"
      46      -7.93465840      -7.94074978       0.05584541       0.00061700       0.00086400       0.00052900 
      46      -5.95086038      -5.95591215       0.05595883      -0.00054900       0.00224700      -0.00071100 
      46      -3.96706236      -3.97107453       0.05607224      -0.00570700       0.00915500      -0.00018500 
      46      -1.98326433      -1.98623690       0.05618566       0.00007400       0.00243000      -0.00085700 
      46      -1.97962008      -7.94452873      -1.96129825       0.00169700      -0.00410800      -0.00705700 
      46      -1.98704027      -5.95889344       0.02143547       0.05229100       0.00358300       0.05430300 
      46       0.00375572      -3.97407572       0.02869229      -0.00686400      -0.00288000      -0.00110400 
      46      -5.95128260      -3.97029677       2.04583595      -0.00084400       0.00280800      -0.00140300 
      46      -3.96748458      -1.98545915       2.04594937      -0.00114400       0.00307900      -0.00170200 
      46      -3.96384033      -7.94375097       0.02846545      -0.00797700      -0.00250000      -0.00058900 
      46      -3.96083733      -5.96049097       2.00858258       0.00289100      -0.00409700       0.00181900 
      46      -1.97703931      -3.97565335       2.00869600       0.00120100      -0.01062300      -0.00505200 
      46       0.00675872      -1.99081572       2.00880942       0.00048700      -0.00360600       0.00155300 
      46      -5.94827961      -1.98703677       4.02595308      -0.00573300       0.00274600       0.00162600 
      46      -5.94463535      -7.94532860       2.00846917      -0.00079100      -0.00388700       0.00209400 
      46      -1.97381739      -7.94832954       1.98108924       0.00097000       0.00621400      -0.00635000 
      46       0.00998063      -5.96349191       1.98120266      -0.01601300      -0.00120800      -0.01475700 
      46      -5.94505769      -5.95971296       3.99834632      -0.00118900      -0.00268100       0.00006000 
      46      -3.96125967      -3.97487534       3.99845974       0.00020400      -0.00277700       0.00067800 
      46      -1.97746165      -1.99003771       3.99857316       0.00009100      -0.00262500       0.00110600 
      47      -1.96473581      -5.97293994       4.04478450      -0.00295300       0.00143800       0.00016400 
      47       0.01906221      -3.98810232       4.04489792      -0.00281300       0.00150300       0.00038000 
      47       2.00286023      -2.00326469       4.04501134      -0.00208500       0.00218000       0.00099900 
      47      -3.95217809      -1.99948574       6.06215500      -0.00248000       0.00192200       0.00147100 
      47      -3.94853384      -7.95777757       4.04467108      -0.00210700       0.00117400       0.00118600 
      47       0.00883654      -7.94827957       4.08509188       0.00289400      -0.00137300      -0.00107300 
      47       1.99263456      -5.96344195       4.08520530      -0.01183300      -0.00109700      -0.01656400 
      47       3.97643259      -3.97860432       4.08531872       0.00314400       0.00536000      -0.00845400 
      47      -1.97860574      -3.97482537       6.10246238       0.00202100      -0.00213400      -0.00139400 
      47       0.00519229      -1.98998775       6.10257580       0.00250100      -0.00110800      -0.00071700 
30
Lattice="-7.938836345914365 -1.9810586779925485 2.0170302436453444 -1.9801537701324525 -7.943129452457191 -2.017597337070121 5.968778520923643 -0.0169778335175474 6.09282790870499" Properties=Z:I:1:pos:R:3:vasp_force:R:3 uuid=337a3ff8-25cc-4e7f-9a94-8d64dadc338a vasp_virial="0.006341142320116871 -0.08983384845469916 0.07292913019960498 -0.08983384845469916 -0.008184149185368231 -0.10477568947932236 0.07292913019960498 -0.10477568947932236 -0.13466836180596028" vasp_energy=-132.33928067 pbc="T T T"
      46      -7.93465840      -7.94074978       0.05584541      -0.00005100       0.00074000      -0.00176200 
      46      -5.95086038      -5.95591215       0.05595883      -0.00668700       0.00303000      -0.01096400 
      46      -3.96706236      -3.97107453       0.05607224       0.00124300      -0.00289200       0.00443000 
      46      -1.98326433      -1.98623690       0.05618566       0.00068000       0.00236900      -0.00045000 
      46      -1.97962008      -7.94452873      -1.96129825       0.00101400       0.00315000      -0.00017700 
      46      -1.98004230      -5.95891335       0.02857887      -0.01118100       0.00352000       0.01040800 
      46       0.00375572      -3.97407572       0.02869229      -0.00268400       0.00323000      -0.00077900 
      46      -5.95128260      -3.97029677       2.04583595      -0.00697100       0.00943400      -0.00175700 
      46      -3.96748458      -1.98545915       2.04594937      -0.00112800       0.00208000      -0.00223000 
      46      -3.96384033      -7.94375097       0.02846545      -0.00081500       0.00419300      -0.00155800 
      46      -3.97025779      -5.96284176       2.01097605       0.07135200       0.01380100      -0.01652900 
      46      -1.97703931      -3.97565335       2.00869600      -0.00959800      -0.01357100       0.00166800 
      46       0.00675872      -1.99081572       2.00880942       0.00016100      -0.00238100       0.00176800 
      46      -5.94827961      -1.98703677       4.02595308       0.00002300      -0.00308800       0.00172000 
      46      -5.94463535      -7.94532860       2.00846917      -0.01076700      -0.01518700       0.00156500 
      46      -1.97381739      -7.94832954       1.98108924      -0.00604100       0.00466400       0.00129700 
      46       0.00998063      -5.96349191       1.98120266      -0.00192300      -0.00164900       0.00177200 
      46      -5.94505769      -5.95971296       3.99834632      -0.01148100      -0.00185400       0.01386600 
      46      -3.96125967      -3.97487534       3.99845974       0.00045500      -0.00280200      -0.00019500 
      46      -1.97746165      -1.99003771       3.99857316      -0.00032100      -0.00305100       0.00052100 
      47      -1.96473581      -5.97293994       4.04478450      -0.00881900       0.00171400      -0.00726600 
      47       0.01906221      -3.98810232       4.04489792      -0.00293200       0.00138600       0.00065900 
      47       2.00286023      -2.00326469       4.04501134      -0.00209300       0.00215400       0.00143100 
      47      -3.95217809      -1.99948574       6.06215500      -0.00235000       0.00191800       0.00181600 
      47      -3.94853384      -7.95777757       4.04467108      -0.00101300      -0.00330600       0.00650000 
      47       0.00883654      -7.94827957       4.08509188       0.00284900      -0.00133700      -0.00071700 
      47       1.99263456      -5.96344195       4.08520530       0.00216700      -0.00100500      -0.00161600 
      47       3.97643259      -3.97860432       4.08531872       0.00253100      -0.00207800      -0.00147400 
      47      -1.97860574      -3.97482537       6.10246238       0.00177600      -0.00198400      -0.00124000 
      47       0.00519229      -1.98998775       6.10257580       0.00260400      -0.00119900      -0.00071000 
30
Lattice="-7.938836345914365 -1.9810586779925485 2.0170302436453444 -1.9801537701324525 -7.943129452457191 -2.017597337070121 5.968778520923643 -0.0169778335175474 6.09282790870499" Properties=Z:I:1:pos:R:3:vasp_force:R:3 uuid=19fea91d-6023-45f5-934e-365d90149886 vasp_virial="0.0030027526487509944 -0.09317523488519552 0.0674990026551571 -0.09317523488519552 0.0003446273000063517 -0.11104490958030748 0.0674990026551571 -0.11104490958030748 -0.14425199750526735" vasp_energy=-132.33924492 pbc="T T T"
      46      -7.93465840      -7.94074978       0.05584541       0.00051200       0.00150100      -0.00063500 
      46      -5.95086038      -5.95591215       0.05595883       0.00697900       0.00199400       0.00862300 
      46      -3.96706236      -3.97107453       0.05607224      -0.00102700       0.00792300      -0.00636900 
      46      -1.98326433      -1.98623690       0.05618566      -0.00008000       0.00338800      -0.00066700 
      46      -1.97962008      -7.94452873      -1.96129825       0.00039500       0.00190800      -0.00087100 
      46      -1.98004230      -5.95891335       0.02857887       0.01104900       0.00409000      -0.01435000 
      46       0.00375572      -3.97407572       0.02869229       0.00174400       0.00405600      -0.00192900 
      46      -5.95128260      -3.97029677       2.04583595       0.00550500      -0.00358000      -0.00143700 
      46      -3.96748458      -1.98545915       2.04594937      -0.00098500       0.00376800      -0.00135500 
      46      -3.96384033      -7.94375097       0.02846545      -0.00215300       0.00401900      -0.00013800 
      46      -3.95141687      -5.95814019       2.00618912      -0.06873000      -0.02238800       0.01868500 
      46      -1.97703931      -3.97565335       2.00869600       0.01218000       0.00824300       0.00189600 
      46       0.00675872      -1.99081572       2.00880942       0.00118000      -0.00324000       0.00138300 
      46      -5.94827961      -1.98703677       4.02595308       0.00099500      -0.00415900       0.00094000 
      46      -5.94463535      -7.94532860       2.00846917       0.01090500       0.00708000       0.00180700 
      46      -1.97381739      -7.94832954       1.98108924       0.00578900      -0.00982700       0.00080400 
      46       0.00998063      -5.96349191       1.98120266       0.00144500      -0.00056400       0.00061500 
      46      -5.94505769      -5.95971296       3.99834632       0.00968400      -0.00315000      -0.01232400 
      46      -3.96125967      -3.97487534       3.99845974      -0.00102200      -0.00294900       0.00124300 
      46      -1.97746165      -1.99003771       3.99857316       0.00007600      -0.00194500       0.00140900 
      47      -1.96473581      -5.97293994       4.04478450       0.00293100       0.00114100       0.00902800 
      47       0.01906221      -3.98810232       4.04489792      -0.00231600       0.00155400       0.00050400 
      47       2.00286023      -2.00326469       4.04501134      -0.00191700       0.00178200       0.00098700 
      47      -3.95217809      -1.99948574       6.06215500      -0.00230600       0.00204400       0.00173100 
      47      -3.94853384      -7.95777757       4.04467108      -0.00326200       0.00552100      -0.00281900 
      47       0.00883654      -7.94827957       4.08509188       0.00315800      -0.00150600      -0.00089400 
      47       1.99263456      -5.96344195       4.08520530       0.00218400      -0.00123400      -0.00205900 
      47       3.97643259      -3.97860432       4.08531872       0.00216500      -0.00184900      -0.00211300 
      47      -1.97860574      -3.97482537       6.10246238       0.00225700      -0.00191500      -0.00120700 
      47       0.00519229      -1.98998775       6.10257580       0.00266600      -0.00170700      -0.00048900 
30
Lattice="-7.938836345914365 -1.9810586779925485 2.0170302436453444 -1.9801537701324525 -7.943129452457191 -2.017597337070121 5.968778520923643 -0.0169778335175474 6.09282790870499" Properties=Z:I:1:pos:R:3:vasp_force:R:3 uuid=a32b1d3d-c66c-43f6-99b7-c4799a9e4bc5 vasp_virial="0.008501805653200172 -0.0922822006643095 0.07360040424483476 -0.0922822006643095 -0.005379182639229576 -0.10512031677932872 0.07360040424483476 -0.10512031677932872 -0.14427597157831126" vasp_energy=-132.33928701 pbc="T T T"
      46      -7.93465840      -7.94074978       0.05584541      -0.00029500       0.00149700      -0.00125000 
      46      -5.95086038      -5.95591215       0.05595883      -0.00519600       0.00368200      -0.00633400 
      46      -3.96706236      -3.97107453       0.05607224       0.00066100      -0.00419600       0.00852200 
      46      -1.98326433      -1.98623690       0.05618566      -0.00012600       0.00254800      -0.00000100 
      46      -1.97962008      -7.94452873      -1.96129825       0.00139200       0.00276100      -0.00076000 
      46      -1.98004230      -5.95891335       0.02857887      -0.00016700       0.00434400      -0.00102700 
      46       0.00375572      -3.97407572       0.02869229      -0.00120100       0.00367200      -0.00092700 
      46      -5.95128260      -3.97029677       2.04583595       0.00573700      -0.00323100      -0.00139000 
      46      -3.96748458      -1.98545915       2.04594937      -0.00160400       0.00060900      -0.00235800 
      46      -3.96384033      -7.94375097       0.02846545      -0.00175000      -0.00715100      -0.01336800 
      46      -3.96318593      -5.96991209       2.00618957       0.01923800       0.06533900       0.01827500 
      46      -1.97703931      -3.97565335       2.00869600      -0.00979400      -0.01350900       0.00194200 
      46       0.00675872      -1.99081572       2.00880942       0.00118300      -0.00324900       0.00109800 
      46      -5.94827961      -1.98703677       4.02595308       0.00094000      -0.00410700       0.00117400 
      46      -5.94463535      -7.94532860       2.00846917      -0.01087000      -0.01487800       0.00180600 
      46      -1.97381739      -7.94832954       1.98108924       0.00711800      -0.00836900       0.00084800 
      46       0.00998063      -5.96349191       1.98120266      -0.00077900      -0.00133400       0.00165300 
      46      -5.94505769      -5.95971296       3.99834632      -0.00063200      -0.00193700       0.00126400 
      46      -3.96125967      -3.97487534       3.99845974       0.00041300      -0.01319000      -0.01223800 
      46      -1.97746165      -1.99003771       3.99857316      -0.00055400      -0.00406100       0.00041600 
      47      -1.96473581      -5.97293994       4.04478450      -0.00741300       0.00259300      -0.00392300 
      47       0.01906221      -3.98810232       4.04489792      -0.00265400       0.00147100       0.00054500 
      47       2.00286023      -2.00326469       4.04501134      -0.00172800       0.00181300       0.00138800 
      47      -3.95217809      -1.99948574       6.06215500      -0.00251000       0.00167500       0.00164400 
      47      -3.94853384      -7.95777757       4.04467108      -0.00186400      -0.00472500       0.00978100 
      47       0.00883654      -7.94827957       4.08509188       0.00293300      -0.00150000      -0.00089600 
      47       1.99263456      -5.96344195       4.08520530       0.00221800      -0.00098200      -0.00211000 
      47       3.97643259      -3.97860432       4.08531872       0.00246100      -0.00186200      -0.00214300 
      47      -1.97860574      -3.97482537       6.10246238       0.00217500      -0.00201700      -0.00119800 
      47       0.00519229      -1.98998775       6.10257580       0.00266700      -0.00170800      -0.00043400 
30
Lattice="-7.938836345914365 -1.9810586779925485 2.0170302436453444 -1.9801537701324525 -7.943129452457191 -2.017597337070121 5.968778520923643 -0.0169778335175474 6.09282790870499" Properties=Z:I:1:pos:R:3:vasp_force:R:3 uuid=82806b6b-d409-4cf8-a3fa-fbe3973996dd vasp_virial="8.990277391470043e-05 -0.09005860538948593 0.06709444017254095 -0.09005860538948593 -0.002786985991355713 -0.10983421889158952 0.06709444017254095 -0.10983421889158952 -0.1349950085511837" vasp_energy=-132.33924852 pbc="T T T"
      46      -7.93465840      -7.94074978       0.05584541       0.00077500       0.00074500      -0.00117500 
      46      -5.95086038      -5.95591215       0.05595883       0.00559400       0.00138800       0.00425000 
      46      -3.96706236      -3.97107453       0.05607224      -0.00039100       0.00932700      -0.01069500 
      46      -1.98326433      -1.98623690       0.05618566       0.00073100       0.00321400      -0.00107000 
      46      -1.97962008      -7.94452873      -1.96129825       0.00002600       0.00230300      -0.00028500 
      46      -1.98004230      -5.95891335       0.02857887      -0.00041900       0.00329900      -0.00235900 
      46       0.00375572      -3.97407572       0.02869229       0.00024200       0.00360200      -0.00176400 
      46      -5.95128260      -3.97029677       2.04583595      -0.00724900       0.00903400      -0.00179000 
      46      -3.96748458      -1.98545915       2.04594937      -0.00051600       0.00521400      -0.00122900 
      46      -3.96384033      -7.94375097       0.02846545      -0.00117500       0.01491000       0.01114100 
      46      -3.95848872      -5.95106985       2.01097560      -0.01698400      -0.07409600      -0.01639100 
      46      -1.97703931      -3.97565335       2.00869600       0.01245100       0.00813800       0.00160300 
      46       0.00675872      -1.99081572       2.00880942       0.00018500      -0.00238500       0.00205600 
      46      -5.94827961      -1.98703677       4.02595308       0.00007600      -0.00311800       0.00150500 
      46      -5.94463535      -7.94532860       2.00846917       0.01096500       0.00683400       0.00160300 
      46      -1.97381739      -7.94832954       1.98108924      -0.00727900       0.00329100       0.00126500 
      46       0.00998063      -5.96349191       1.98120266       0.00033800      -0.00088000       0.00075000 
      46      -5.94505769      -5.95971296       3.99834632      -0.00070100      -0.00309300      -0.00026300 
      46      -3.96125967      -3.97487534       3.99845974      -0.00100100       0.00789400       0.01384600 
      46      -1.97746165      -1.99003771       3.99857316       0.00031800      -0.00090600       0.00151700 
      47      -1.96473581      -5.97293994       4.04478450       0.00149500       0.00023300       0.00555100 