  30
   1   1
     6.863498032042608     0.252271947071276     0.043735488938880
     0.216819895825238     6.826685350219732     0.017587993546555
     0.037425017440927     0.038097782772840     7.173685804196114
   1   2
    -0.829697274859797    -0.847393148782049     0.007108278438670
    -1.132576290079541    -0.826542193217164     0.019785983626544
     0.018643040718168     0.008034909018900     0.092242557856334
   1   3
    -0.032620876858122    -0.064089545979743    -0.037447165749479
     0.051823089934585    -0.031122057691427    -0.000002267025568
     0.001756063657389    -0.037006539542943    -0.090851970430111
   1   4
    -0.032785161543828     0.050640666934409     0.001521745928778
    -0.062876224771674    -0.031019899749477    -0.036351795746880
    -0.037184532007041    -0.000681836800950    -0.090831942307226
   1   5
    -0.829604304777751    -1.133688478440561     0.018282729085431
    -0.846201784679599    -0.826774786107449     0.008586146632659
     0.007511028877945     0.019241311975504     0.092251157538853
   1   6
    -0.929270282201296    -0.069275285875878     1.113508236426306
    -0.112632760901762     0.044999441314475     0.065339177239272
     1.074872477358810     0.070710239639017    -0.964572941199076
   1   7
     0.103850930547354    -0.071473612949343    -0.038659293425349
    -0.044681843499727    -0.935215238088460    -1.130591187838807
    -0.064371515646311    -1.060601430922045    -0.963203223343075
   1   8
    -0.053250784485570    -0.054629175537805    -0.022787350919149
    -0.056222831961743    -0.053003554185212    -0.023265101773897
    -0.036178624278225    -0.040898526388677    -0.017708056294935
   1   9
    -0.937852438103573    -0.046451136840738    -1.126863116164479
    -0.074777214652717     0.108105494514662    -0.040683509205196
    -1.057044972820178    -0.061977559802241    -0.955147207742158
   1  10
     0.043680887351414    -0.115233240879329     0.061017954708911
    -0.065614530347335    -0.932371180251429     1.125429379752613
     0.072645762685962     1.077791900716342    -0.974085801163040
   1  11
    -0.044886803544819    -0.038717873577682     0.034501567901455
    -0.058673989035713     0.068159720119668    -0.043222594124549
    -0.017490381685869    -0.041596036216291     0.030939465731425
   1  12
    -1.058045235396770     1.366187873619581     0.011582321031306
     1.367421846283076    -1.055680702353350     0.020646522305296
     0.022563838867590     0.026792894370335     0.187676775760681
   1  13
     0.068722672696306    -0.058351165684710    -0.038450114856315
    -0.036338370574226    -0.037370253695382     0.029476166584174
    -0.039943401586534    -0.015218235837140     0.031089043330031
   1  14
     0.055161522600137     0.050887363429553     0.064140061477306
    -0.007556810490735     0.022566138882988    -0.080017760412451
     0.062415331427909    -0.037537482473425    -0.031274434757920
   1  15
     0.021615881363500    -0.007192478394533    -0.074601538286736
     0.057581693790018     0.058480174125138     0.069460270136365
    -0.032214328017651     0.067910294956087    -0.022483749885793
   1  16
    -0.066521279753476     0.060523309415975     0.036434345578869
     0.061988313998496    -0.048230020827273    -0.008575140032509
     0.036584771284489    -0.009287068372012    -0.001935336565237
   1  17
    -0.035073504144988     0.044798031688879    -0.016215385136649
     0.046057151009802    -0.061414607194501    -0.005150234233184
    -0.015979364841015    -0.005945380671686     0.020558046513536
   1  18
    -0.014541754876140     0.028485102438496    -0.007111075225327
     0.029754892563202    -0.014417344545963    -0.004155424287201
    -0.006657643418468    -0.004582083335906    -0.041172902331208
   1  19
    -0.061857268069856     0.048974219629462    -0.001160923636699
     0.050267873811422    -0.033461644136778    -0.016142644014690
    -0.001038904854936    -0.016865445256495     0.027734913120444
   1  20
    -0.051220245236797     0.060044630692183    -0.012296095866095
     0.061102689773984    -0.070568023278426     0.034176459547076
    -0.012069266571528     0.033376439509549    -0.006582593403987
   1  21
     0.025250844602099    -0.020443902704171     0.003426434057448
     0.016655399426515    -0.026079891922941     0.003854141651977
    -0.003719357908373     0.000481364089750     0.029345580102057
   1  22
    -0.563956844921789     0.629976584453859    -0.007043046075915
     0.629870751486330    -0.560388915124409    -0.003986304709686
    -0.001800374234370    -0.000876538830376     0.077560379590182
   1  23
    -0.028785934953527     0.015612416116554     0.002959038231569
    -0.017840425637868     0.024203472883474     0.004557007518381
     0.001288051192710    -0.002195674634436     0.030108610239510
   1  24
    -0.003170969510749     0.000462343836370    -0.006384509005298
     0.000700819010663     0.000726438427597     0.004314642577510
    -0.015854596336615     0.016719746080512    -0.011222792436624
   1  25
    -0.000990143946806     0.000661377776137     0.001737589403044
     0.001232943687737    -0.001801215502445    -0.005554126594075
     0.016555930355069    -0.015812017774945    -0.012131330512141
   1  26
     0.116831101374932    -0.035430219873694     0.008425650224611
    -0.006183472986238    -0.923064264517138     1.013087378602359
    -0.021622644556650     1.082117559408095    -0.904424860748951
   1  27
    -0.927485816260616     0.002434428554123    -1.015239752464902
    -0.031565016644307     0.128480282242490    -0.003013794135591
    -1.071377715073191     0.025530046882979    -0.895860615695410
   1  28
    -0.007035770424182    -0.010505579067505    -0.005076343351469
    -0.009022765605377    -0.004175423610145    -0.005130383880858
    -0.015935267630610    -0.017756046799124    -0.015488449013959
   1  29
     0.127030392166430    -0.031702997829998    -0.002000510431561
     0.005415331340488    -0.926287991439209    -1.018120045349630
     0.027347755541857    -1.076595024418099    -0.899824157424995
   1  30
    -0.916987326118563    -0.007381628269882     1.002955477516220
    -0.033928235789876     0.116583520546123     0.007661035222867
     1.070875347088405    -0.021372509601208    -0.894390143148251
   2   1
    -0.829604304777751    -1.133688478440561     0.018282729085430
    -0.846201784679598    -0.826774786107449     0.008586146632659
     0.007511028877945     0.019241311975504     0.092251157538853
   2   2
     6.863498032042608     0.252271947071276     0.043735488938880
     0.216819895825238     6.826685350219730     0.017587993546556
     0.037425017440927     0.038097782772841     7.173685804196114
   2   3
    -0.829697274859797    -0.847393148782049     0.007108278438670
    -1.132576290079541    -0.826542193217163     0.019785983626544
     0.018643040718167     0.008034909018900     0.092242557856334
   2   4
    -0.032620876858122    -0.064089545979743    -0.037447165749479
     0.051823089934585    -0.031122057691427    -0.000002267025568
     0.001756063657389    -0.037006539542943    -0.090851970430111
   2   5
    -0.032785161543828     0.050640666934409     0.001521745928778
    -0.062876224771674    -0.031019899749477    -0.036351795746880
    -0.037184532007041    -0.000681836800950    -0.090831942307226
   2   6
     0.043680887351414    -0.115233240879329     0.061017954708911
    -0.065614530347335    -0.932371180251428     1.125429379752613
     0.072645762685962     1.077791900716342    -0.974085801163040
   2   7
    -0.929270282201296    -0.069275285875878     1.113508236426306
    -0.112632760901762     0.044999441314475     0.065339177239271
     1.074872477358810     0.070710239639017    -0.964572941199076
   2   8
     0.103850930547354    -0.071473612949343    -0.038659293425349
    -0.044681843499727    -0.935215238088460    -1.130591187838807
    -0.064371515646311    -1.060601430922045    -0.963203223343075
   2   9
    -0.053250784485570    -0.054629175537805    -0.022787350919149
    -0.056222831961743    -0.053003554185212    -0.023265101773897
    -0.036178624278225    -0.040898526388677    -0.017708056294935
   2  10
    -0.937852438103573    -0.046451136840738    -1.126863116164479
    -0.074777214652717     0.108105494514662    -0.040683509205196
    -1.057044972820178    -0.061977559802241    -0.955147207742158
   2  11
     0.021615881363500    -0.007192478394533    -0.074601538286736
     0.057581693790018     0.058480174125138     0.069460270136365
    -0.032214328017651     0.067910294956087    -0.022483749885793
   2  12
    -0.044886803544819    -0.038717873577682     0.034501567901455
    -0.058673989035713     0.068159720119668    -0.043222594124549
    -0.017490381685869    -0.041596036216291     0.030939465731425
   2  13
    -1.058045235396770     1.366187873619581     0.011582321031306
     1.367421846283075    -1.055680702353350     0.020646522305296
     0.022563838867590     0.026792894370335     0.187676775760681
   2  14
     0.068722672696306    -0.058351165684710    -0.038450114856315
    -0.036338370574226    -0.037370253695382     0.029476166584174
    -0.039943401586534    -0.015218235837140     0.031089043330031
   2  15
     0.055161522600137     0.050887363429553     0.064140061477306
    -0.007556810490735     0.022566138882987    -0.080017760412451
     0.062415331427909    -0.037537482473425    -0.031274434757920
   2  16
    -0.051220245236797     0.060044630692183    -0.012296095866095
     0.061102689773984    -0.070568023278426     0.034176459547076
    -0.012069266571528     0.033376439509549    -0.006582593403987
   2  17
    -0.066521279753476     0.060523309415975     0.036434345578869
     0.061988313998496    -0.048230020827273    -0.008575140032509
     0.036584771284489    -0.009287068372012    -0.001935336565237
   2  18
    -0.035073504144988     0.044798031688879    -0.016215385136649
     0.046057151009802    -0.061414607194501    -0.005150234233184
    -0.015979364841015    -0.005945380671686     0.020558046513536
   2  19
    -0.014541754876140     0.028485102438496    -0.007111075225327
     0.029754892563202    -0.014417344545963    -0.004155424287201
    -0.006657643418468    -0.004582083335906    -0.041172902331208
   2  20
    -0.061857268069856     0.048974219629462    -0.001160923636699
     0.050267873811422    -0.033461644136778    -0.016142644014690
    -0.001038904854936    -0.016865445256495     0.027734913120444
   2  21
    -0.000990143946806     0.000661377776137     0.001737589403044
     0.001232943687737    -0.001801215502445    -0.005554126594075
     0.016555930355069    -0.015812017774945    -0.012131330512141
   2  22
     0.025250844602099    -0.020443902704171     0.003426434057448
     0.016655399426515    -0.026079891922941     0.003854141651977
    -0.003719357908373     0.000481364089750     0.029345580102057
   2  23
    -0.563956844921789     0.629976584453859    -0.007043046075915
     0.629870751486330    -0.560388915124409    -0.003986304709686
    -0.001800374234370    -0.000876538830376     0.077560379590182
   2  24
    -0.028785934953527     0.015612416116554     0.002959038231569
    -0.017840425637868     0.024203472883474     0.004557007518381
     0.001288051192710    -0.002195674634436     0.030108610239510
   2  25
    -0.003170969510749     0.000462343836370    -0.006384509005298
     0.000700819010663     0.000726438427597     0.004314642577510
    -0.015854596336615     0.016719746080512    -0.011222792436624
   2  26
    -0.916987326118563    -0.007381628269882     1.002955477516220
    -0.033928235789875     0.116583520546123     0.007661035222867
     1.070875347088405    -0.021372509601208    -0.894390143148251
   2  27
     0.116831101374932    -0.035430219873694     0.008425650224611
    -0.006183472986238    -0.923064264517138     1.013087378602358
    -0.021622644556650     1.082117559408095    -0.904424860748951
   2  28
    -0.927485816260616     0.002434428554123    -1.015239752464902
    -0.031565016644307     0.128480282242490    -0.003013794135591
    -1.071377715073191     0.025530046882979    -0.895860615695410
   2  29
    -0.007035770424182    -0.010505579067505    -0.005076343351469
    -0.009022765605377    -0.004175423610145    -0.005130383880858
    -0.015935267630610    -0.017756046799124    -0.015488449013959
   2  30
     0.127030392166430    -0.031702997829998    -0.002000510431561
     0.005415331340488    -0.926287991439209    -1.018120045349630
     0.027347755541857    -1.076595024418099    -0.899824157424995
   3   1
    -0.032785161543828     0.050640666934409     0.001521745928778
    -0.062876224771674    -0.031019899749477    -0.036351795746880
    -0.037184532007041    -0.000681836800950    -0.090831942307226
   3   2
    -0.829604304777751    -1.133688478440561     0.018282729085430
    -0.846201784679598    -0.826774786107449     0.008586146632659
     0.007511028877945     0.019241311975504     0.092251157538853
   3   3
     6.863498032042608     0.252271947071276     0.043735488938880
     0.216819895825238     6.826685350219730     0.017587993546556
     0.037425017440927     0.038097782772841     7.173685804196114
   3   4
    -0.829697274859797    -0.847393148782049     0.007108278438670
    -1.132576290079541    -0.826542193217163     0.019785983626544
     0.018643040718167     0.008034909018900     0.092242557856334
   3   5
    -0.032620876858122    -0.064089545979743    -0.037447165749479
     0.051823089934585    -0.031122057691427    -0.000002267025568
     0.001756063657389    -0.037006539542943    -0.090851970430111
   3   6
    -0.937852438103573    -0.046451136840738    -1.126863116164479
    -0.074777214652717     0.108105494514662    -0.040683509205196
    -1.057044972820178    -0.061977559802241    -0.955147207742158
   3   7
     0.043680887351414    -0.115233240879329     0.061017954708911
    -0.065614530347335    -0.932371180251428     1.125429379752613
     0.072645762685962     1.077791900716342    -0.974085801163040
   3   8
    -0.929270282201296    -0.069275285875878     1.113508236426306
    -0.112632760901762     0.044999441314475     0.065339177239271
     1.074872477358810     0.070710239639017    -0.964572941199076
   3   9
     0.103850930547354    -0.071473612949343    -0.038659293425349
    -0.044681843499727    -0.935215238088460    -1.130591187838807
    -0.064371515646311    -1.060601430922045    -0.963203223343075
   3  10
    -0.053250784485570    -0.054629175537805    -0.022787350919149
    -0.056222831961743    -0.053003554185212    -0.023265101773897
    -0.036178624278225    -0.040898526388677    -0.017708056294935
   3  11
     0.055161522600137     0.050887363429553     0.064140061477306
    -0.007556810490735     0.022566138882987    -0.080017760412451
     0.062415331427909    -0.037537482473425    -0.031274434757920
   3  12
     0.021615881363500    -0.007192478394533    -0.074601538286736
     0.057581693790018     0.058480174125138     0.069460270136365
    -0.032214328017651     0.067910294956087    -0.022483749885793
   3  13
    -0.044886803544819    -0.038717873577682     0.034501567901455
    -0.058673989035713     0.068159720119668    -0.043222594124549
    -0.017490381685869    -0.041596036216291     0.030939465731425
   3  14
    -1.058045235396770     1.366187873619581     0.011582321031306
     1.367421846283075    -1.055680702353350     0.020646522305296
     0.022563838867590     0.026792894370335     0.187676775760681
   3  15
     0.068722672696306    -0.058351165684710    -0.038450114856315
    -0.036338370574226    -0.037370253695382     0.029476166584174
    -0.039943401586534    -0.015218235837140     0.031089043330031
   3  16
    -0.061857268069856     0.048974219629462    -0.001160923636699
     0.050267873811422    -0.033461644136778    -0.016142644014690
    -0.001038904854936    -0.016865445256495     0.027734913120444
   3  17
    -0.051220245236797     0.060044630692183    -0.012296095866095
     0.061102689773984    -0.070568023278426     0.034176459547076
    -0.012069266571528     0.033376439509549    -0.006582593403987
   3  18
    -0.066521279753476     0.060523309415975     0.036434345578869
     0.061988313998496    -0.048230020827273    -0.008575140032509
     0.036584771284489    -0.009287068372012    -0.001935336565237
   3  19
    -0.035073504144988     0.044798031688879    -0.016215385136649
     0.046057151009802    -0.061414607194501    -0.005150234233184
    -0.015979364841015    -0.005945380671686     0.020558046513536
   3  20
    -0.014541754876140     0.028485102438496    -0.007111075225327
     0.029754892563202    -0.014417344545963    -0.004155424287201
    -0.006657643418468    -0.004582083335906    -0.041172902331208
   3  21
    -0.003170969510749     0.000462343836370    -0.006384509005298
     0.000700819010663     0.000726438427597     0.004314642577510
    -0.015854596336615     0.016719746080512    -0.011222792436624
   3  22
    -0.000990143946806     0.000661377776137     0.001737589403044
     0.001232943687737    -0.001801215502445    -0.005554126594075
     0.016555930355069    -0.015812017774945    -0.012131330512141
   3  23
     0.025250844602099    -0.020443902704171     0.003426434057448
     0.016655399426515    -0.026079891922941     0.003854141651977
    -0.003719357908373     0.000481364089750     0.029345580102057
   3  24
    -0.563956844921789     0.629976584453859    -0.007043046075915
     0.629870751486330    -0.560388915124409    -0.003986304709686
    -0.001800374234370    -0.000876538830376     0.077560379590182
   3  25
    -0.028785934953527     0.015612416116554     0.002959038231569
    -0.017840425637868     0.024203472883474     0.004557007518381
     0.001288051192710    -0.002195674634436     0.030108610239510
   3  26
     0.127030392166430    -0.031702997829998    -0.002000510431561
     0.005415331340488    -0.926287991439209    -1.018120045349630
     0.027347755541857    -1.076595024418099    -0.899824157424995
   3  27
    -0.916987326118563    -0.007381628269882     1.002955477516220
    -0.033928235789875     0.116583520546123     0.007661035222867
     1.070875347088405    -0.021372509601208    -0.894390143148251
   3  28
     0.116831101374932    -0.035430219873694     0.008425650224611
    -0.006183472986238    -0.923064264517138     1.013087378602358
    -0.021622644556650     1.082117559408095    -0.904424860748951
   3  29
    -0.927485816260616     0.002434428554123    -1.015239752464902
    -0.031565016644307     0.128480282242490    -0.003013794135591
    -1.071377715073191     0.025530046882979    -0.895860615695410
   3  30
    -0.007035770424182    -0.010505579067505    -0.005076343351469
    -0.009022765605377    -0.004175423610145    -0.005130383880858
    -0.015935267630610    -0.017756046799124    -0.015488449013959
   4   1
    -0.032620876858122    -0.064089545979743    -0.037447165749479
     0.051823089934585    -0.031122057691427    -0.000002267025568
     0.001756063657389    -0.037006539542943    -0.090851970430111
   4   2
    -0.032785161543828     0.050640666934409     0.001521745928778
    -0.062876224771674    -0.031019899749477    -0.036351795746880
    -0.037184532007041    -0.000681836800950    -0.090831942307226
   4   3
    -0.829604304777751    -1.133688478440561     0.018282729085430
    -0.846201784679598    -0.826774786107449     0.008586146632659
     0.007511028877945     0.019241311975504     0.092251157538853
   4   4
     6.863498032042608     0.252271947071276     0.043735488938880
     0.216819895825238     6.826685350219730     0.017587993546556
     0.037425017440927     0.038097782772841     7.173685804196114
   4   5
    -0.829697274859797    -0.847393148782049     0.007108278438670
    -1.132576290079541    -0.826542193217163     0.019785983626544
     0.018643040718167     0.008034909018900     0.092242557856334
   4   6
    -0.053250784485570    -0.054629175537805    -0.022787350919149
    -0.056222831961743    -0.053003554185212    -0.023265101773897
    -0.036178624278225    -0.040898526388677    -0.017708056294935
   4   7
    -0.937852438103573    -0.046451136840738    -1.126863116164479
    -0.074777214652717     0.108105494514662    -0.040683509205196
    -1.057044972820178    -0.061977559802241    -0.955147207742158
   4   8
     0.043680887351414    -0.115233240879329     0.061017954708911
    -0.065614530347335    -0.932371180251428     1.125429379752613
     0.072645762685962     1.077791900716342    -0.974085801163040
   4   9
    -0.929270282201296    -0.069275285875878     1.113508236426306
    -0.112632760901762     0.044999441314475     0.065339177239271
     1.074872477358810     0.070710239639017    -0.964572941199076
   4  10
     0.103850930547354    -0.071473612949343    -0.038659293425349
    -0.044681843499727    -0.935215238088460    -1.130591187838807
    -0.064371515646311    -1.060601430922045    -0.963203223343075
   4  11
     0.068722672696306    -0.058351165684710    -0.038450114856315
    -0.036338370574226    -0.037370253695382     0.029476166584174
    -0.039943401586534    -0.015218235837140     0.031089043330031
   4  12
     0.055161522600137     0.050887363429553     0.064140061477306
    -0.007556810490735     0.022566138882987    -0.080017760412451
     0.062415331427909    -0.037537482473425    -0.031274434757920
   4  13
     0.021615881363500    -0.007192478394533    -0.074601538286736
     0.057581693790018     0.058480174125138     0.069460270136365
    -0.032214328017651     0.067910294956087    -0.022483749885793
   4  14
    -0.044886803544819    -0.038717873577682     0.034501567901455
    -0.058673989035713     0.068159720119668    -0.043222594124549
    -0.017490381685869    -0.041596036216291     0.030939465731425
   4  15
    -1.058045235396770     1.366187873619581     0.011582321031306
     1.367421846283075    -1.055680702353350     0.020646522305296
     0.022563838867590     0.026792894370335     0.187676775760681
   4  16
    -0.014541754876140     0.028485102438496    -0.007111075225327
     0.029754892563202    -0.014417344545963    -0.004155424287201
    -0.006657643418468    -0.004582083335906    -0.041172902331208
   4  17
    -0.061857268069856     0.048974219629462    -0.001160923636699
     0.050267873811422    -0.033461644136778    -0.016142644014690
    -0.001038904854936    -0.016865445256495     0.027734913120444
   4  18
    -0.051220245236797     0.060044630692183    -0.012296095866095
     0.061102689773984    -0.070568023278426     0.034176459547076
    -0.012069266571528     0.033376439509549    -0.006582593403987
   4  19
    -0.066521279753476     0.060523309415975     0.036434345578869
     0.061988313998496    -0.048230020827273    -0.008575140032509
     0.036584771284489    -0.009287068372012    -0.001935336565237
   4  20
    -0.035073504144988     0.044798031688879    -0.016215385136649
     0.046057151009802    -0.061414607194501    -0.005150234233184
    -0.015979364841015    -0.005945380671686     0.020558046513536
   4  21
    -0.028785934953527     0.015612416116554     0.002959038231569
    -0.017840425637868     0.024203472883474     0.004557007518381
     0.001288051192710    -0.002195674634436     0.030108610239510
   4  22
    -0.003170969510749     0.000462343836370    -0.006384509005298
     0.000700819010663     0.000726438427597     0.004314642577510
    -0.015854596336615     0.016719746080512    -0.011222792436624
   4  23
    -0.000990143946806     0.000661377776137     0.001737589403044
     0.001232943687737    -0.001801215502445    -0.005554126594075
     0.016555930355069    -0.015812017774945    -0.012131330512141
   4  24
     0.025250844602099    -0.020443902704171     0.003426434057448
     0.016655399426515    -0.026079891922941     0.003854141651977
    -0.003719357908373     0.000481364089750     0.029345580102057
   4  25
    -0.563956844921789     0.629976584453859    -0.007043046075915
     0.629870751486330    -0.560388915124409    -0.003986304709686
    -0.001800374234370    -0.000876538830376     0.077560379590182
   4  26
    -0.007035770424182    -0.010505579067505    -0.005076343351469
    -0.009022765605377    -0.004175423610145    -0.005130383880858
    -0.015935267630610    -0.017756046799124    -0.015488449013959
   4  27
     0.127030392166430    -0.031702997829998    -0.002000510431561
     0.005415331340488    -0.926287991439209    -1.018120045349630
     0.027347755541857    -1.076595024418099    -0.899824157424995
   4  28
    -0.916987326118563    -0.007381628269882     1.002955477516220
    -0.033928235789875     0.116583520546123     0.007661035222867
     1.070875347088405    -0.021372509601208    -0.894390143148251
   4  29
     0.116831101374932    -0.035430219873694     0.008425650224611
    -0.006183472986238    -0.923064264517138     1.013087378602358
    -0.021622644556650     1.082117559408095    -0.904424860748951
   4  30
    -0.927485816260616     0.002434428554123    -1.015239752464902
    -0.031565016644307     0.128480282242490    -0.003013794135591
    -1.071377715073191     0.025530046882979    -0.895860615695410
   5   1
    -0.829697274859797    -0.847393148782049     0.007108278438670
    -1.132576290079541    -0.826542193217163     0.019785983626544
     0.018643040718167     0.008034909018900     0.092242557856334
   5   2
    -0.032620876858122    -0.064089545979743    -0.037447165749479
     0.051823089934585    -0.031122057691427    -0.000002267025568
     0.001756063657389    -0.037006539542943    -0.090851970430111
   5   3
    -0.032785161543828     0.050640666934409     0.001521745928778
    -0.062876224771674    -0.031019899749477    -0.036351795746880
    -0.037184532007041    -0.000681836800950    -0.090831942307226
   5   4
    -0.829604304777751    -1.133688478440561     0.018282729085430
    -0.846201784679598    -0.826774786107449     0.008586146632659
     0.007511028877945     0.019241311975504     0.092251157538853
   5   5
     6.863498032042608     0.252271947071276     0.043735488938880
     0.216819895825238     6.826685350219730     0.017587993546556
     0.037425017440927     0.038097782772841     7.173685804196114
   5   6
     0.103850930547354    -0.071473612949343    -0.038659293425349
    -0.044681843499727    -0.935215238088460    -1.130591187838807
    -0.064371515646311    -1.060601430922045    -0.963203223343075
   5   7
    -0.053250784485570    -0.054629175537805    -0.022787350919149
    -0.056222831961743    -0.053003554185212    -0.023265101773897
    -0.036178624278225    -0.040898526388677    -0.017708056294935
   5   8
    -0.937852438103573    -0.046451136840738    -1.126863116164479
    -0.074777214652717     0.108105494514662    -0.040683509205196
    -1.057044972820178    -0.061977559802241    -0.955147207742158
   5   9
     0.043680887351414    -0.115233240879329     0.061017954708911
    -0.065614530347335    -0.932371180251428     1.125429379752613
     0.072645762685962     1.077791900716342    -0.974085801163040
   5  10
    -0.929270282201296    -0.069275285875878     1.113508236426306
    -0.112632760901762     0.044999441314475     0.065339177239271
     1.074872477358810     0.070710239639017    -0.964572941199076
   5  11
    -1.058045235396770     1.366187873619581     0.011582321031306
     1.367421846283075    -1.055680702353350     0.020646522305296
     0.022563838867590     0.026792894370335     0.187676775760681
   5  12
     0.068722672696306    -0.058351165684710    -0.038450114856315
    -0.036338370574226    -0.037370253695382     0.029476166584174
    -0.039943401586534    -0.015218235837140     0.031089043330031
   5  13
     0.055161522600137     0.050887363429553     0.064140061477306
    -0.007556810490735     0.022566138882987    -0.080017760412451
     0.062415331427909    -0.037537482473425    -0.031274434757920
   5  14
     0.021615881363500    -0.007192478394533    -0.074601538286736
     0.057581693790018     0.058480174125138     0.069460270136365
    -0.032214328017651     0.067910294956087    -0.022483749885793
   5  15
    -0.044886803544819    -0.038717873577682     0.034501567901455
    -0.058673989035713     0.068159720119668    -0.043222594124549
    -0.017490381685869    -0.041596036216291     0.030939465731425
   5  16
    -0.035073504144988     0.044798031688879    -0.016215385136649
     0.046057151009802    -0.061414607194501    -0.005150234233184
    -0.015979364841015    -0.005945380671686     0.020558046513536
   5  17
    -0.014541754876140     0.028485102438496    -0.007111075225327
     0.029754892563202    -0.014417344545963    -0.004155424287201
    -0.006657643418468    -0.004582083335906    -0.041172902331208
   5  18
    -0.061857268069856     0.048974219629462    -0.001160923636699
     0.050267873811422    -0.033461644136778    -0.016142644014690
    -0.001038904854936    -0.016865445256495     0.027734913120444
   5  19
    -0.051220245236797     0.060044630692183    -0.012296095866095
     0.061102689773984    -0.070568023278426     0.034176459547076
    -0.012069266571528     0.033376439509549    -0.006582593403987
   5  20
    -0.066521279753476     0.060523309415975     0.036434345578869
     0.061988313998496    -0.048230020827273    -0.008575140032509
     0.036584771284489    -0.009287068372012    -0.001935336565237
   5  21
    -0.563956844921789     0.629976584453859    -0.007043046075915
     0.629870751486330    -0.560388915124409    -0.003986304709686
    -0.001800374234370    -0.000876538830376     0.077560379590182
   5  22
    -0.028785934953527     0.015612416116554     0.002959038231569
    -0.017840425637868     0.024203472883474     0.004557007518381
     0.001288051192710    -0.002195674634436     0.030108610239510
   5  23
    -0.003170969510749     0.000462343836370    -0.006384509005298
     0.000700819010663     0.000726438427597     0.004314642577510