30
Lattice="-4.014272336210003 -4.010163551467198 3.965887672421956 2.0039512441447833 2.0032404984289682 7.926599620541056 -6.044239068422061 6.038840249482604 0.0008342452208378" Properties=Z:I:1:pos:R:3:vasp_force:R:3 uuid=ba036cb4-eec9-41bd-9bca-c982aec5586d vasp_virial="-0.13843042329913177 0.005407953649608769 0.14500750218341205 0.005407953649608769 -0.11267969056623858 0.1136419705670836 0.14500750218341205 0.1136419705670836 0.17707750669755543" vasp_energy=-132.16930485 pbc="T T T"
      46      -2.05838111      -1.96684548       3.97072753       0.04422900       0.04019000      -0.04236500 
      46      -0.04608324       0.04366080       3.96396358      -0.00845500      -0.00863400      -0.00069100 
      46      -2.05385639      -1.96178924       7.92881611       0.00244900      -0.00021600      -0.00072800 
      46      -0.04735721       0.04292429       7.92778096       0.00335800       0.00018800       0.00011900 
      46       1.95914197       2.04763781       7.92674582      -0.00624000      -0.01250500      -0.00111400 
      46      -4.02875814      -1.99220070       5.94753255      -0.00988700      -0.00073400       0.01459400 
      46      -2.02225895       0.01251282       5.94649741       0.00309200      -0.00097400       0.00042100 
      46      -0.01575977       2.01722634       5.94546226       0.00164400      -0.00139800       0.00143300 
      46      -2.02353292       0.01177631       9.91031479       0.00233300       0.00149900       0.00091000 
      46      -2.02098498       0.01324933       1.98268003       0.00073000      -0.01248000       0.01355400 
      46      -4.01533970      -0.00347977      11.89265063      -0.00295200       0.00162600      -0.00186700 
      46      -4.01279176      -0.00200675       3.96501586      -0.00093800       0.00188300      -0.00285400 
      46      -2.00629258       2.00270677       3.96398071      -0.00096000       0.00001200      -0.00152700 
      46      -4.01406573      -0.00274326       7.92883324      -0.00228500      -0.00012200      -0.00206500 
      46      -2.00756655       2.00197026       7.92779810      -0.00150000       0.00093500      -0.00145800 
      46      -5.98897174      -0.03315048       5.94754973      -0.00300500       0.00082900       0.00122300 
      46      -3.98247255       1.97156304       5.94651458      -0.00358000       0.00073100       0.00050800 
      46      -1.97597337       3.97627656       5.94547944      -0.00360300       0.00001500       0.00041700 
      46      -3.98374652       1.97082653       9.91033197      -0.00243200       0.00003600       0.00081100 
      46      -3.98119858       1.97229955       1.98269720      -0.00271500      -0.00119600       0.00055300 
      47      -8.02291070      -0.00498017       3.96646960       0.00215700      -0.00246200      -0.00121800 
      47      -6.01641152       1.99973335       3.96543446       0.00196000      -0.00139900      -0.00167700 
      47      -4.00991234       4.00444687       3.96439931       0.00172100      -0.00143200      -0.00090400 
      47      -6.01768549       1.99899684       7.92925184       0.00119300      -0.00230900      -0.00125600 
      47      -4.01118631       4.00371036       7.92821670       0.00131800      -0.00189000      -0.00089300 
      47      -8.06938074       2.04490270       5.94794824      -0.00081100      -0.01017400       0.01252800 
      47      -6.06288155       4.04961622       5.94691310      -0.00136800       0.00278500       0.00034500 
      47      -4.05638237       6.05432974       5.94587795      -0.00145100       0.00197600       0.00101100 
      47      -6.06415552       4.04887971       9.91073048      -0.00053900       0.00284100       0.00060700 
      47      -6.06160758       4.05035273       1.98309571      -0.01346400       0.00237800       0.01158600 
30
Lattice="-4.014272336210003 -4.010163551467198 3.965887672421956 2.0039512441447833 2.0032404984289682 7.926599620541056 -6.044239068422061 6.038840249482604 0.0008342452208378" Properties=Z:I:1:pos:R:3:vasp_force:R:3 uuid=ffcbcc62-24d5-4f3c-a3a6-163fe0b8d967 vasp_virial="-0.13615212797002832 0.005063211593231269 0.13826554666347296 0.005063211593231269 -0.11291951112719685 0.12180786066771236 0.13826554666347296 0.12180786066771236 0.1773832779127772" vasp_energy=-132.16928603 pbc="T T T"
      46      -2.05258242      -1.96105272       3.96499873       0.01099200      -0.00027500      -0.00745100 
      46      -0.04608324       0.04366080       3.96396358       0.00324900       0.00902200      -0.00674200 
      46      -2.05385639      -1.96178924       7.92881611      -0.01031400      -0.00018800      -0.01249200 
      46      -0.04735721       0.04292429       7.92778096       0.00326300      -0.00041100      -0.00057900 
      46       1.95914197       2.04763781       7.92674582       0.00347200      -0.01406600      -0.01270000 
      46      -4.03113874      -1.99458046       5.93811611       0.01871800       0.01600000       0.07361300 
      46      -2.02225895       0.01251282       5.94649741      -0.00159300      -0.00484000       0.00146600 
      46      -0.01575977       2.01722634       5.94546226       0.00231500      -0.00147000      -0.00014900 
      46      -2.02353292       0.01177631       9.91031479       0.00165900       0.00101800       0.00047300 
      46      -2.02098498       0.01324933       1.98268003      -0.00239600      -0.00442800       0.00110600 
      46      -4.01533970      -0.00347977      11.89265063      -0.01452700       0.00162300      -0.01234100 
      46      -4.01279176      -0.00200675       3.96501586      -0.00236300       0.00809100      -0.00770700 
      46      -2.00629258       2.00270677       3.96398071       0.00627900       0.00069500      -0.00680300 
      46      -4.01406573      -0.00274326       7.92883324      -0.00178900      -0.01236000      -0.01253900 
      46      -2.00756655       2.00197026       7.92779810      -0.00275500       0.00029200      -0.00201800 
      46      -5.98897174      -0.03315048       5.94754973      -0.00183500       0.00158100       0.00291400 
      46      -3.98247255       1.97156304       5.94651458      -0.00404400       0.00089900       0.00089200 
      46      -1.97597337       3.97627656       5.94547944      -0.00283600      -0.00081000       0.00000100 
      46      -3.98374652       1.97082653       9.91033197      -0.00301200       0.00078100       0.00090000 
      46      -3.98119858       1.97229955       1.98269720      -0.00268600      -0.00132200       0.00051400 
      47      -8.02291070      -0.00498017       3.96646960       0.00195400      -0.00208000      -0.00121300 
      47      -6.01641152       1.99973335       3.96543446       0.00143600      -0.00170300      -0.00150000 
      47      -4.00991234       4.00444687       3.96439931       0.00212700      -0.00183300      -0.00111500 
      47      -6.01768549       1.99899684       7.92925184       0.00126000      -0.00219900      -0.00146100 
      47      -4.01118631       4.00371036       7.92821670       0.00134600      -0.00205200      -0.00113900 
      47      -8.06938074       2.04490270       5.94794824      -0.00123300       0.00223000       0.00230400 
      47      -6.06288155       4.04961622       5.94691310      -0.00208800       0.00237700       0.00129600 
      47      -4.05638237       6.05432974       5.94587795      -0.00158800       0.00190400       0.00056600 
      47      -6.06415552       4.04887971       9.91073048      -0.00119200       0.00207100       0.00091400 
      47      -6.06160758       4.05035273       1.98309571      -0.00181600       0.00145400       0.00099300 
30
Lattice="-4.014272336210003 -4.010163551467198 3.965887672421956 2.0039512441447833 2.0032404984289682 7.926599620541056 -6.044239068422061 6.038840249482604 0.0008342452208378" Properties=Z:I:1:pos:R:3:vasp_force:R:3 uuid=ff7e1232-dba2-4cbd-b53f-f2cd281e3aae vasp_virial="-0.12613662179300897 0.0028868400025350576 0.14294204760215903 0.0028868400025350576 -0.11109687486391406 0.11592925916722302 0.14294204760215903 0.11592925916722302 0.17626811230432127" vasp_energy=-132.16927625 pbc="T T T"
      46      -2.05258242      -1.96105272       3.96499873      -0.00325300      -0.00179900       0.00600200 
      46      -0.04608324       0.04366080       3.96396358       0.00393900       0.00699800      -0.00737000 
      46      -2.05385639      -1.96178924       7.92881611      -0.00387100      -0.00112300      -0.00797600 
      46      -0.04735721       0.04292429       7.92778096       0.00373500       0.00006900      -0.00018100 
      46       1.95914197       2.04763781       7.92674582       0.00495000       0.00543300       0.00623100 
      46      -4.03583236      -1.98513280       5.94753353       0.05882100      -0.05694400       0.00152400 
      46      -2.02225895       0.01251282       5.94649741       0.00353800      -0.00151900       0.00165700 
      46      -0.01575977       2.01722634       5.94546226       0.00178000      -0.00105100       0.00114900 
      46      -2.02353292       0.01177631       9.91031479       0.00227100       0.00117400       0.00258000 
      46      -2.02098498       0.01324933       1.98268003       0.00159200      -0.00165400       0.00129300 
      46      -4.01533970      -0.00347977      11.89265063      -0.00943500       0.00084900      -0.00907400 
      46      -4.01279176      -0.00200675       3.96501586      -0.00271600       0.00723900      -0.00942400 
      46      -2.00629258       2.00270677       3.96398071      -0.00827700       0.00064600       0.00614700 
      46      -4.01406573      -0.00274326       7.92883324      -0.00186200       0.00623900       0.00530200 
      46      -2.00756655       2.00197026       7.92779810      -0.00238100       0.00138000      -0.00149900 
      46      -5.98897174      -0.03315048       5.94754973      -0.02024700       0.01822000       0.00101400 
      46      -3.98247255       1.97156304       5.94651458      -0.00281400       0.00081600       0.00057200 
      46      -1.97597337       3.97627656       5.94547944      -0.00366700      -0.00029600       0.00095200 
      46      -3.98374652       1.97082653       9.91033197      -0.00213600      -0.00013700       0.00034800 
      46      -3.98119858       1.97229955       1.98269720      -0.00285100      -0.00181500       0.00055200 
      47      -8.02291070      -0.00498017       3.96646960       0.00176600      -0.00195000      -0.00116400 
      47      -6.01641152       1.99973335       3.96543446       0.00138000      -0.00153800      -0.00111300 
      47      -4.00991234       4.00444687       3.96439931       0.00176800      -0.00142600      -0.00084400 
      47      -6.01768549       1.99899684       7.92925184       0.00091600      -0.00206000      -0.00121200 
      47      -4.01118631       4.00371036       7.92821670       0.00147100      -0.00198300      -0.00094100 
      47      -8.06938074       2.04490270       5.94794824      -0.01681400       0.01702800       0.00121200 
      47      -6.06288155       4.04961622       5.94691310      -0.00245700       0.00233800       0.00096300 
      47      -4.05638237       6.05432974       5.94587795      -0.00154300       0.00231800       0.00106000 
      47      -6.06415552       4.04887971       9.91073048      -0.00146000       0.00234800       0.00126100 
      47      -6.06160758       4.05035273       1.98309571      -0.00214100       0.00220300       0.00098200 
30
Lattice="-4.014272336210003 -4.010163551467198 3.965887672421956 2.0039512441447833 2.0032404984289682 7.926599620541056 -6.044239068422061 6.038840249482604 0.0008342452208378" Properties=Z:I:1:pos:R:3:vasp_force:R:3 uuid=84ba50d1-6611-4940-8613-940c5e735456 vasp_virial="-0.13734823301780763 0.004745449349961575 0.1433227627426803 0.004745449349961575 -0.12207166328476646 0.11651981729858271 0.1433227627426803 0.11651981729858271 0.17798582707218483" vasp_energy=-132.16930686 pbc="T T T"
      46      -2.05258242      -1.96105272       3.96499873       0.00890300       0.00040300      -0.00821600 
      46      -0.04608324       0.04366080       3.96396358       0.00168000      -0.00528000       0.00682700 
      46      -2.05385639      -1.96178924       7.92881611       0.00873000       0.00142700       0.00608200 
      46      -0.04735721       0.04292429       7.92778096       0.00369900       0.00008900      -0.00025400 
      46       1.95914197       2.04763781       7.92674582       0.00246100      -0.00719200      -0.00785400 
      46      -4.02168391      -1.99926861       5.94753158      -0.05352900       0.05639500       0.00188600 
      46      -2.02225895       0.01251282       5.94649741       0.00127800      -0.00088500       0.00170200 
      46      -0.01575977       2.01722634       5.94546226       0.00241400      -0.00094300       0.00202900 
      46      -2.02353292       0.01177631       9.91031479       0.00202300       0.00039400       0.00178200 
      46      -2.02098498       0.01324933       1.98268003       0.00107700       0.00072800       0.00134600 
      46      -4.01533970      -0.00347977      11.89265063       0.00443900       0.00155700       0.00558400 
      46      -4.01279176      -0.00200675       3.96501586      -0.00242400      -0.00662900       0.00528600 
      46      -2.00629258       2.00270677       3.96398071       0.00543800       0.00029400      -0.00855700 
      46      -4.01406573      -0.00274326       7.92883324      -0.00245900      -0.00763200      -0.00946100 
      46      -2.00756655       2.00197026       7.92779810      -0.00186200       0.00068400      -0.00163900 
      46      -5.98897174      -0.03315048       5.94754973       0.01402200      -0.01607900       0.00106400 
      46      -3.98247255       1.97156304       5.94651458      -0.00462200       0.00077000       0.00091600 
      46      -1.97597337       3.97627656       5.94547944      -0.00374200       0.00009600      -0.00047000 
      46      -3.98374652       1.97082653       9.91033197      -0.00255500      -0.00015400       0.00175400 
      46      -3.98119858       1.97229955       1.98269720      -0.00277200      -0.00005800       0.00020200 
      47      -8.02291070      -0.00498017       3.96646960       0.00203700      -0.00241900      -0.00104200 
      47      -6.01641152       1.99973335       3.96543446       0.00180400      -0.00206600      -0.00125600 
      47      -4.00991234       4.00444687       3.96439931       0.00225600      -0.00190300      -0.00072500 
      47      -6.01768549       1.99899684       7.92925184       0.00135300      -0.00235400      -0.00141700 
      47      -4.01118631       4.00371036       7.92821670       0.00138600      -0.00194700      -0.00096100 
      47      -8.06938074       2.04490270       5.94794824       0.01434900      -0.01413800       0.00118600 
      47      -6.06288155       4.04961622       5.94691310      -0.00136300       0.00202600       0.00127500 
      47      -4.05638237       6.05432974       5.94587795      -0.00131900       0.00161100       0.00088800 
      47      -6.06415552       4.04887971       9.91073048      -0.00080800       0.00207600       0.00140800 
      47      -6.06160758       4.05035273       1.98309571      -0.00189500       0.00113000       0.00063700 
30
Lattice="-4.014272336210003 -4.010163551467198 3.965887672421956 2.0039512441447833 2.0032404984289682 7.926599620541056 -6.044239068422061 6.038840249482604 0.0008342452208378" Properties=Z:I:1:pos:R:3:vasp_force:R:3 uuid=f1e4d6e2-2160-48b0-a05a-cd21c2bd9ea1 vasp_virial="-0.12372342739836648 0.00473645607892564 0.13998326143133652 0.00473645607892564 -0.1263974266530511 0.11867820234720707 0.13998326143133652 0.11867820234720707 0.17663383865978263" vasp_energy=-132.1693273 pbc="T T T"
      46      -2.05258242      -1.96105272       3.96499873       0.00207400      -0.00041900      -0.00157100 
      46      -0.04608324       0.04366080       3.96396358       0.00335100       0.00118800      -0.00004300 
      46      -2.05385639      -1.96178924       7.92881611       0.00261700       0.00064800      -0.00072600 
      46      -0.04735721       0.04292429       7.92778096       0.00398900      -0.00052500      -0.00072100 
      46       1.95914197       2.04763781       7.92674582       0.00541000       0.00089900      -0.00152700 
      46      -4.02875814      -1.99220070       5.94753255       0.00333100       0.00060800       0.00085600 
      46      -2.02225895       0.01251282       5.94649741       0.00196800      -0.00166100       0.00130300 
      46      -0.01575977       2.01722634       5.94546226       0.00286400      -0.00017400       0.00055500 
      46      -2.02353292       0.01177631       9.91031479      -0.00899200       0.00082900       0.01308900 
      46      -2.02098498       0.01324933       1.98268003       0.00144800      -0.01212300       0.01270300 
      46      -0.00686606       4.00089102       7.93249175       0.03689100       0.04045100      -0.04459500 
      46      -4.01279176      -0.00200675       3.96501586      -0.01207000      -0.00992200      -0.00152700 
      46      -2.00629258       2.00270677       3.96398071      -0.00094900       0.00085000      -0.00063500 
      46      -4.01406573      -0.00274326       7.92883324      -0.00174900      -0.00042600      -0.00150500 
      46      -2.00756655       2.00197026       7.92779810      -0.01269200      -0.00880100      -0.00114200 
      46      -5.98897174      -0.03315048       5.94754973      -0.00235500       0.00149300       0.00002000 
      46      -3.98247255       1.97156304       5.94651458      -0.00420900       0.00028200       0.00037800 
      46      -1.97597337       3.97627656       5.94547944      -0.00295600       0.00034000      -0.00079600 
      46      -3.98374652       1.97082653       9.91033197      -0.00314200      -0.01217000       0.01307200 
      46      -3.98119858       1.97229955       1.98269720      -0.01519200      -0.00169200       0.01274600 
      47      -8.02291070      -0.00498017       3.96646960       0.00276000      -0.00134900      -0.00192800 
      47      -6.01641152       1.99973335       3.96543446       0.00158700      -0.00238500      -0.00114500 
      47      -4.00991234       4.00444687       3.96439931       0.00205500      -0.00155500      -0.00069700 
      47      -6.01768549       1.99899684       7.92925184       0.00124000      -0.00219000      -0.00120500 
      47      -4.01118631       4.00371036       7.92821670       0.00083500      -0.00198500      -0.00092500 
      47      -8.06938074       2.04490270       5.94794824      -0.00174900       0.00177900       0.00129700 
      47      -6.06288155       4.04961622       5.94691310      -0.00180800       0.00227700       0.00133100 
      47      -4.05638237       6.05432974       5.94587795      -0.00146600       0.00182200       0.00107200 
      47      -6.06415552       4.04887971       9.91073048      -0.00123700       0.00235900       0.00140400 
      47      -6.06160758       4.05035273       1.98309571      -0.00185100       0.00155200       0.00086300 
30
Lattice="-4.014272336210003 -4.010163551467198 3.965887672421956 2.0039512441447833 2.0032404984289682 7.926599620541056 -6.044239068422061 6.038840249482604 0.0008342452208378" Properties=Z:I:1:pos:R:3:vasp_force:R:3 uuid=7a676c67-7e28-495e-a704-429ad3da3406 vasp_virial="-0.14168898517115214 0.005213099443830182 0.1459428023711493 0.005213099443830182 -0.10881558177779861 0.11248483636046 0.1459428023711493 0.11248483636046 0.17725437436126212" vasp_energy=-132.16933752 pbc="T T T"
      46      -2.05258242      -1.96105272       3.96499873       0.00345100      -0.00097800      -0.00050600 
      46      -0.04608324       0.04366080       3.96396358       0.00234900       0.00068200      -0.00069000 
      46      -2.05385639      -1.96178924       7.92881611       0.00213200      -0.00038800      -0.00135000 
      46      -0.04735721       0.04292429       7.92778096       0.00343900       0.00071600       0.00030000 
      46       1.95914197       2.04763781       7.92674582       0.00200000      -0.00244000       0.00007100 
      46      -4.02875814      -1.99220070       5.94753255       0.00180400      -0.00102200       0.00310500 
      46      -2.02225895       0.01251282       5.94649741       0.00287600      -0.00073200       0.00205100 
      46      -0.01575977       2.01722634       5.94546226       0.00133400      -0.00181400       0.00262800 
      46      -2.02353292       0.01177631       9.91031479       0.01374200       0.00068200      -0.00912900 
      46      -2.02098498       0.01324933       1.98268003       0.00131400       0.01079500      -0.00968500 
      46      -4.00954101       0.00231298      11.88692183      -0.04208100      -0.03872400       0.04098400 
      46      -4.01279176      -0.00200675       3.96501586       0.00730200       0.01082500      -0.00238500 
      46      -2.00629258       2.00270677       3.96398071      -0.00174800       0.00013700      -0.00197000 
      46      -4.01406573      -0.00274326       7.92883324      -0.00259300      -0.00107900      -0.00282600 
      46      -2.00756655       2.00197026       7.92779810       0.00807800       0.01049500      -0.00205500 
      46      -5.98897174      -0.03315048       5.94754973      -0.00316200      -0.00005800       0.00204200 
      46      -3.98247255       1.97156304       5.94651458      -0.00320200       0.00133300       0.00109800 
      46      -1.97597337       3.97627656       5.94547944      -0.00443800      -0.00046400       0.00126300 
      46      -3.98374652       1.97082653       9.91033197      -0.00160400       0.01232900      -0.01139900 
      46      -3.98119858       1.97229955       1.98269720       0.00914600      -0.00010800      -0.01157000 
      47      -8.02291070      -0.00498017       3.96646960       0.00110700      -0.00302900      -0.00028000 
      47      -6.01641152       1.99973335       3.96543446       0.00161900      -0.00121800      -0.00121300 
      47      -4.00991234       4.00444687       3.96439931       0.00200900      -0.00175300      -0.00088700 
      47      -6.01768549       1.99899684       7.92925184       0.00104100      -0.00222800      -0.00145000 
      47      -4.01118631       4.00371036       7.92821670       0.00205000      -0.00192900      -0.00099800 
      47      -8.06938074       2.04490270       5.94794824      -0.00141800       0.00185600       0.00109500 
      47      -6.06288155       4.04961622       5.94691310      -0.00198900       0.00210600       0.00089500 
      47      -4.05638237       6.05432974       5.94587795      -0.00137900       0.00212600       0.00085400 
      47      -6.06415552       4.04887971       9.91073048      -0.00101500       0.00208100       0.00126100 
      47      -6.06160758       4.05035273       1.98309571      -0.00216300       0.00180100       0.00074800 
30
Lattice="-4.014272336210003 -4.010163551467198 3.965887672421956 2.0039512441447833 2.0032404984289682 7.926599620541056 -6.044239068422061 6.038840249482604 0.0008342452208378" Properties=Z:I:1:pos:R:3:vasp_force:R:3 uuid=c41d7344-da9a-462a-86e0-881c3b5768c3 vasp_virial="-0.13510890852985985 0.005153144303590617 0.13927579077650964 0.005153144303590617 -0.1134740961744128 0.12129824197567604 0.13927579077650964 0.12129824197567604 0.17690663454787267" vasp_energy=-132.16929249 pbc="T T T"
      46      -2.05258242      -1.96105272       3.96499873       0.00263200      -0.00031400      -0.00118100 
      46      -0.04608324       0.04366080       3.96396358       0.00349700       0.00002400      -0.00022900 
      46      -2.05385639      -1.96178924       7.92881611       0.00150100       0.00087200      -0.00082700 
      46      -0.04735721       0.04292429       7.92778096       0.00405100       0.00000300      -0.00039200 
      46       1.95914197       2.04763781       7.92674582       0.00282200      -0.00166400      -0.00262200 
      46      -4.02875814      -1.99220070       5.94753255       0.01466000      -0.00059400       0.01265000 
      46      -2.02225895       0.01251282       5.94649741       0.00304400      -0.00043600       0.00210600 
      46      -0.01575977       2.01722634       5.94546226       0.00170500       0.01061800       0.01193800 
      46      -2.02353292       0.01177631       9.91031479      -0.00547800       0.00060200       0.00766300 
      46      -2.02098498       0.01324933       1.98268003       0.00111300      -0.00828000       0.00702200 
      46      -6.01691034      -2.00434051       3.97546745      -0.01860200      -0.01579200      -0.07312400 
      46      -4.01279176      -0.00200675       3.96501586       0.00114700       0.00423900      -0.00179100 
      46      -2.00629258       2.00270677       3.96398071      -0.00085800       0.00027900       0.00038600 
      46      -4.01406573      -0.00274326       7.92883324      -0.00239900      -0.00027100      -0.00045000 
      46      -2.00756655       2.00197026       7.92779810       0.00188300       0.00469700      -0.00137800 
      46      -5.98897174      -0.03315048       5.94754973      -0.00248600       0.01398100       0.01299100 
      46      -3.98247255       1.97156304       5.94651458      -0.00325600       0.00131200       0.00107900 
      46      -1.97597337       3.97627656       5.94547944       0.00897900       0.00025000       0.01166700 
      46      -3.98374652       1.97082653       9.91033197      -0.00276300      -0.00821700       0.00741300 
      46      -3.98119858       1.97229955       1.98269720      -0.01104300      -0.00136100       0.00678200 
      47      -8.02291070      -0.00498017       3.96646960       0.00155400      -0.00258400      -0.00223000 
      47      -6.01641152       1.99973335       3.96543446       0.00139800      -0.00157300      -0.00138700 
      47      -4.00991234       4.00444687       3.96439931       0.00208200      -0.00150200      -0.00039100 
      47      -6.01768549       1.99899684       7.92925184       0.00129800      -0.00212900      -0.00094000 
      47      -4.01118631       4.00371036       7.92821670       0.00161500      -0.00213800      -0.00115400 
      47      -8.06938074       2.04490270       5.94794824      -0.00163400       0.00172600       0.00128700 
      47      -6.06288155       4.04961622       5.94691310      -0.00181900       0.00229100       0.00128100 
      47      -4.05638237       6.05432974       5.94587795      -0.00155100       0.00197400       0.00108700 
      47      -6.06415552       4.04887971       9.91073048      -0.00123700       0.00240200       0.00163800 
      47      -6.06160758       4.05035273       1.98309571      -0.00185400       0.00158400       0.00110500 
30
Lattice="-4.014272336210003 -4.010163551467198 3.965887672421956 2.0039512441447833 2.0032404984289682 7.926599620541056 -6.044239068422061 6.038840249482604 0.0008342452208378" Properties=Z:I:1:pos:R:3:vasp_force:R:3 uuid=5b315ce5-ab53-42cf-975c-031235c05087 vasp_virial="-0.1289515156272565 0.004952294583788075 0.149288299196517 0.004952294583788075 -0.12036893730196278 0.11246385206137614 0.149288299196517 0.11246385206137614 0.17830358931545454" vasp_energy=-132.16934075 pbc="T T T"
      46      -2.05258242      -1.96105272       3.96499873       0.00289100      -0.00109200      -0.00087000 
      46      -0.04608324       0.04366080       3.96396358       0.00217000       0.00187200      -0.00047500 
      46      -2.05385639      -1.96178924       7.92881611       0.00322300      -0.00057700      -0.00129000 
      46      -0.04735721       0.04292429       7.92778096       0.00339000       0.00019200      -0.00005900 
      46       1.95914197       2.04763781       7.92674582       0.00451500       0.00019700       0.00115900 
      46      -4.02875814      -1.99220070       5.94753255      -0.00904500       0.00016300      -0.00826300 
      46      -2.02225895       0.01251282       5.94649741       0.00176700      -0.00192500       0.00124200 
      46      -0.01575977       2.01722634       5.94546226       0.00251500      -0.01308200      -0.00918800 
      46      -2.02353292       0.01177631       9.91031479       0.00999200       0.00103700      -0.00342400 
      46      -2.02098498       0.01324933       1.98268003       0.00152600       0.00719400      -0.00429800 
      46      -4.01772031      -0.00585953      11.88323418       0.01409900       0.01673700       0.06965200 
      46      -4.01279176      -0.00200675       3.96501586      -0.00627800      -0.00364700      -0.00219000 
      46      -2.00629258       2.00270677       3.96398071      -0.00185300       0.00073800      -0.00301900 
      46      -4.01406573      -0.00274326       7.92883324      -0.00197000      -0.00121500      -0.00386200 
      46      -2.00756655       2.00197026       7.92779810      -0.00618000      -0.00263700      -0.00175600 
      46      -5.98897174      -0.03315048       5.94754973      -0.00304300      -0.01199100      -0.01049700 
      46      -3.98247255       1.97156304       5.94651458      -0.00419100       0.00034100       0.00039100 
      46      -1.97597337       3.97627656       5.94547944      -0.01692600      -0.00036100      -0.01164300 
      46      -3.98374652       1.97082653       9.91033197      -0.00194600       0.00820400      -0.00544200 
      46      -3.98119858       1.97229955       1.98269720       0.00517200      -0.00046800      -0.00591500 
      47      -8.02291070      -0.00498017       3.96646960       0.00229700      -0.00177600       0.00001700 
      47      -6.01641152       1.99973335       3.96543446       0.00178900      -0.00199900      -0.00099200 