30
Lattice="2.01137384712823 -2.011985670844346 4.023433455057382 -8.08383062599468 8.081781319161726 8.082955785664577 -6.035913356916045 -4.023893158487651 -2.010781756067943" Properties=Z:I:1:pos:R:3:vasp_force:R:3 uuid=1ecd61eb-4610-4b02-9149-01247f9559f7 vasp_virial="-0.05609216331822784 -0.06744352886496253 0.0768499086798633 -0.06744352886496253 -0.047472966705029936 -0.0025300129362123194 0.0768499086798633 -0.0025300129362123194 -0.05510282411920052" vasp_energy=-120.19582408 pbc="T T T"
      46      -4.04651725      -4.00180868       0.03487042      -0.02649200       0.02715900      -0.05183700 
      46      -2.03850849      -1.98577122       0.02633142      -0.00069600       0.00041700       0.00103400 
      46       1.98495593      -1.98580250       4.04939089       0.00790200      -0.00937000       0.01811600 
      46      -2.03886685      -3.99774126       2.03823514       0.00924200      -0.00756400       0.01777700 
      46      -0.02677628      -1.98578686       2.03786115       0.00053200       0.00135900       0.00057700 
      46      -6.03020457      -2.01779984      -0.00447243       0.00857400      -0.00915200       0.00252100 
      46      -2.00674015      -2.01783111       4.01858703       0.00018400      -0.00042600       0.00073000 
      46      -6.03056294      -4.02976987       2.00743129      -0.00564500      -0.00034800       0.00390600 
      46      -4.01847236      -2.01781548       2.00705730      -0.00069300       0.00508200       0.00431200 
      46      -2.00638179      -0.00586108       2.00668331       0.00024900      -0.00051200       0.00070900 
      46      -8.05192489       0.00283246       4.02788808       0.00033200      -0.00037600      -0.00011900 
      46      -6.03983432       2.01478686       4.02751409       0.00042000      -0.00074800      -0.00098600 
      46      -8.05228326      -2.00913757       6.03979180       0.00040500      -0.00032500       0.00002900 
      46      -6.04019268       0.00281682       6.03941781       0.00123100      -0.00093100      -0.00017600 
      46      -4.02810211       2.01477122       6.03904382       0.00022800      -0.00030400       0.00001100 
      47      -2.00803122       2.00700531       4.01881379      -0.00023900       0.00137300       0.00000100 
      47      -6.03185400      -0.00493345       2.00765805      -0.00101200       0.00078300       0.00010800 
      47      -2.00838958      -0.00496472       6.03071752      -0.00049500       0.00095200      -0.00020400 
      47      -6.03221237      -2.01690348       4.01956177       0.00027800       0.00018700       0.00016500 
      47      -4.02012179      -0.00494908       4.01918778      -0.00077400       0.00105100       0.00019900 
      47     -10.06479356       2.01565490       4.02964868      -0.00008600      -0.00037700       0.00014800 
      47      -6.04132914       2.01562362       8.05270815       0.00050700      -0.00008200       0.00031500 
      47     -10.06515192       0.00368486       6.04155240       0.00051600      -0.00045300       0.00033700 
      47      -8.05306135       2.01563926       6.04117841       0.00068900      -0.00026100      -0.00005300 
      47      -6.04097077       4.02759366       6.04080443       0.00053700      -0.00025000      -0.00075500 
      47     -12.13666120       2.07495775       6.10101609      -0.00095100       0.00364600       0.00232400 
      47     -10.12457063       4.08691215       6.10064210      -0.00420800       0.00023700       0.00311200 
      47      -6.10110621       4.08688088      10.12370157       0.00023300      -0.00147200      -0.00102600 
      47     -10.12492899       2.07494212       8.11254582       0.00832900      -0.00882800      -0.00063000 
      47      -8.11283842       4.08689651       8.11217183       0.00090100      -0.00046600      -0.00064800 
30
Lattice="2.01137384712823 -2.011985670844346 4.023433455057382 -8.08383062599468 8.081781319161726 8.082955785664577 -6.035913356916045 -4.023893158487651 -2.010781756067943" Properties=Z:I:1:pos:R:3:vasp_force:R:3 uuid=8304708c-74c7-4919-8b2b-0999a1a096f5 vasp_virial="-0.04597823751269143 -0.06867484266684794 0.07888372053173373 -0.06867484266684794 -0.03663924303023215 -0.004560761818426323 0.07888372053173373 -0.004560761818426323 -0.04967217891834768" vasp_energy=-120.19577383 pbc="T T T"
      46      -4.05059906      -3.99772562       0.02670541       0.01101000      -0.01120000       0.00029400 
      46      -2.03850849      -1.98577122       0.02633142       0.00043400       0.00128200      -0.00007400 
      46       1.98495593      -1.98580250       4.04939089      -0.00172000      -0.01108500      -0.01240600 
      46      -2.03886685      -3.99774126       2.03823514       0.01097600       0.00209500      -0.01273500 
      46      -0.02677628      -1.98578686       2.03786115      -0.00027200       0.00028900      -0.00053200 
      46      -6.02443038      -2.02357257      -0.01024601      -0.04443300       0.04323300       0.04498200 
      46      -2.00674015      -2.01783111       4.01858703       0.00003400       0.00069500       0.00115200 
      46      -6.03056294      -4.02976987       2.00743129      -0.00125400      -0.00011700       0.00181600 
      46      -4.01847236      -2.01781548       2.00705730      -0.00086100       0.00073900       0.00222200 
      46      -2.00638179      -0.00586108       2.00668331      -0.00081300      -0.00030200       0.00113300 
      46      -8.05192489       0.00283246       4.02788808       0.00065100      -0.00063800      -0.00008500 
      46      -6.03983432       2.01478686       4.02751409       0.00031400      -0.00074000      -0.00108400 
      46      -8.05228326      -2.00913757       6.03979180       0.00062000      -0.00031200      -0.00000900 
      46      -6.04019268       0.00281682       6.03941781       0.00127500      -0.00109000      -0.00021400 
      46      -4.02810211       2.01477122       6.03904382       0.00027800      -0.00014000      -0.00008700 
      47      -2.00803122       2.00700531       4.01881379       0.01065200       0.00164000      -0.01084800 
      47      -6.03185400      -0.00493345       2.00765805      -0.00122300      -0.01009700      -0.01078900 
      47      -2.00838958      -0.00496472       6.03071752       0.00006700       0.00094600      -0.00030500 
      47      -6.03221237      -2.01690348       4.01956177       0.01088500      -0.01036200       0.00038000 
      47      -4.02012179      -0.00494908       4.01918778      -0.00071400       0.00054900       0.00010100 
      47     -10.06479356       2.01565490       4.02964868       0.00017700      -0.00058300       0.00025700 
      47      -6.04132914       2.01562362       8.05270815       0.00055400      -0.00007300       0.00040700 
      47     -10.06515192       0.00368486       6.04155240       0.00026100      -0.00030700       0.00039600 
      47      -8.05306135       2.01563926       6.04117841       0.00060000       0.00005200       0.00000700 
      47      -6.04097077       4.02759366       6.04080443       0.00058500      -0.00024100      -0.00066200 
      47     -12.13666120       2.07495775       6.10101609      -0.00052900      -0.00113100      -0.00101700 
      47     -10.12457063       4.08691215       6.10064210       0.00060900      -0.00012800      -0.00021700 
      47      -6.10110621       4.08688088      10.12370157       0.00009000      -0.00137800      -0.00093200 
      47     -10.12492899       2.07494212       8.11254582       0.00088300      -0.00132700      -0.00059800 
      47      -8.11283842       4.08689651       8.11217183       0.00086400      -0.00026600      -0.00055300 
30
Lattice="2.01137384712823 -2.011985670844346 4.023433455057382 -8.08383062599468 8.081781319161726 8.082955785664577 -6.035913356916045 -4.023893158487651 -2.010781756067943" Properties=Z:I:1:pos:R:3:vasp_force:R:3 uuid=28b1910c-9b48-4628-8e03-b66dc67b2f01 vasp_virial="-0.057899315415522366 -0.06847268666952348 0.08080726547597264 -0.06847268666952348 -0.045797522302961975 -0.0003920601160232166 0.08080726547597264 -0.0003920601160232166 -0.0588396471000468" vasp_energy=-120.19582614 pbc="T T T"
      46      -4.05059906      -3.99772562       0.02670541      -0.00205300       0.00533500      -0.00091300 
      46      -2.03850849      -1.98577122       0.02633142      -0.00114000       0.00117300       0.00037500 
      46       1.98495593      -1.98580250       4.04939089      -0.00026700      -0.00790400      -0.00959200 
      46      -2.03886685      -3.99774126       2.03823514      -0.00666500       0.00133900       0.00612100 
      46      -0.02677628      -1.98578686       2.03786115       0.00003200       0.00034800      -0.00033600 
      46      -6.03822278      -2.02314524      -0.00714359       0.05133200       0.03422600       0.01828400 
      46      -2.00674015      -2.01783111       4.01858703      -0.01038400      -0.01202900       0.00106500 
      46      -6.03056294      -4.02976987       2.00743129      -0.00851300      -0.00272500      -0.00446800 
      46      -4.01847236      -2.01781548       2.00705730      -0.00827000      -0.00175600      -0.00582700 
      46      -2.00638179      -0.00586108       2.00668331      -0.01188200      -0.01145500       0.00008600 
      46      -8.05192489       0.00283246       4.02788808       0.00043700      -0.00030400       0.00006000 
      46      -6.03983432       2.01478686       4.02751409       0.00039700      -0.00074700      -0.00118900 
      46      -8.05228326      -2.00913757       6.03979180       0.00033400      -0.00019800       0.00024000 
      46      -6.04019268       0.00281682       6.03941781       0.00124200      -0.00100200      -0.00015800 
      46      -4.02810211       2.01477122       6.03904382       0.00031300      -0.00020100       0.00000900 
      47      -2.00803122       2.00700531       4.01881379      -0.00492200       0.00199800       0.00572800 
      47      -6.03185400      -0.00493345       2.00765805      -0.00012000      -0.00650100      -0.00743000 
      47      -2.00838958      -0.00496472       6.03071752      -0.00088300       0.00113900      -0.00006800 
      47      -6.03221237      -2.01690348       4.01956177      -0.00153000       0.00388500       0.00032700 
      47      -4.02012179      -0.00494908       4.01918778      -0.00068700       0.00027500       0.00004400 
      47     -10.06479356       2.01565490       4.02964868       0.00006600      -0.00040200       0.00020200 
      47      -6.04132914       2.01562362       8.05270815       0.00046200      -0.00004300       0.00041100 
      47     -10.06515192       0.00368486       6.04155240       0.00045700      -0.00045000       0.00026100 
      47      -8.05306135       2.01563926       6.04117841       0.00068100      -0.00011100      -0.00000600 
      47      -6.04097077       4.02759366       6.04080443       0.00049700      -0.00023500      -0.00055100 
      47     -12.13666120       2.07495775       6.10101609      -0.00049000      -0.00099500      -0.00104000 
      47     -10.12457063       4.08691215       6.10064210       0.00018500      -0.00006500      -0.00007500 
      47      -6.10110621       4.08688088      10.12370157       0.00026700      -0.00141000      -0.00109700 
      47     -10.12492899       2.07494212       8.11254582       0.00049800      -0.00077500      -0.00036000 
      47      -8.11283842       4.08689651       8.11217183       0.00060800      -0.00040900      -0.00010400 
30
Lattice="2.01137384712823 -2.011985670844346 4.023433455057382 -8.08383062599468 8.081781319161726 8.082955785664577 -6.035913356916045 -4.023893158487651 -2.010781756067943" Properties=Z:I:1:pos:R:3:vasp_force:R:3 uuid=674e46bf-027b-4108-be7d-6e3e4edbce43 vasp_virial="-0.04510835413026492 -0.07024920907025368 0.07680396413501682 -0.07024920907025368 -0.04048326994905354 -0.006910059544909191 0.07680396413501682 -0.006910059544909191 -0.0523492143980687" vasp_energy=-120.19582783 pbc="T T T"
      46      -4.05059906      -3.99772562       0.02670541       0.00051200      -0.00425600      -0.00049300 
      46      -2.03850849      -1.98577122       0.02633142       0.00053500       0.00115200      -0.00000200 
      46       1.98495593      -1.98580250       4.04939089      -0.00116600       0.01001400       0.00869800 
      46      -2.03886685      -3.99774126       2.03823514       0.00415700       0.00083900      -0.00758500 
      46      -0.02677628      -1.98578686       2.03786115      -0.00038500       0.00166600      -0.00021500 
      46      -6.02218637      -2.01245444      -0.00180128      -0.05189500      -0.03501500      -0.01581200 
      46      -2.00674015      -2.01783111       4.01858703       0.01170300       0.01205900       0.00083300 
      46      -6.03056294      -4.02976987       2.00743129       0.00770000       0.00174500       0.00530600 
      46      -4.01847236      -2.01781548       2.00705730       0.00756500       0.00117800       0.00816800 
      46      -2.00638179      -0.00586108       2.00668331       0.01161400       0.00953500       0.00182700 
      46      -8.05192489       0.00283246       4.02788808       0.00025600      -0.00040200       0.00010300 
      46      -6.03983432       2.01478686       4.02751409       0.00040200      -0.00071300      -0.00103300 
      46      -8.05228326      -2.00913757       6.03979180       0.00054200      -0.00035000       0.00005900 
      46      -6.04019268       0.00281682       6.03941781       0.00119200      -0.00085800       0.00004300 
      46      -4.02810211       2.01477122       6.03904382       0.00018700      -0.00028900      -0.00023500 
      47      -2.00803122       2.00700531       4.01881379       0.00422900       0.00074900      -0.00544000 
      47      -6.03185400      -0.00493345       2.00765805      -0.00186600       0.00850600       0.00803500 
      47      -2.00838958      -0.00496472       6.03071752       0.00047000       0.00091300      -0.00043700 
      47      -6.03221237      -2.01690348       4.01956177       0.00163900      -0.00295200       0.00016000 
      47      -4.02012179      -0.00494908       4.01918778      -0.00093000       0.00132300       0.00025500 
      47     -10.06479356       2.01565490       4.02964868       0.00002000      -0.00053900       0.00022500 
      47      -6.04132914       2.01562362       8.05270815       0.00053600       0.00000400       0.00054400 
      47     -10.06515192       0.00368486       6.04155240       0.00042700      -0.00038700       0.00036600 
      47      -8.05306135       2.01563926       6.04117841       0.00070200      -0.00018900      -0.00014900 
      47      -6.04097077       4.02759366       6.04080443       0.00053200      -0.00017300      -0.00062800 
      47     -12.13666120       2.07495775       6.10101609      -0.00063300      -0.00079800      -0.00088900 
      47     -10.12457063       4.08691215       6.10064210       0.00052700      -0.00016500      -0.00025600 
      47      -6.10110621       4.08688088      10.12370157       0.00025100      -0.00098500      -0.00044300 
      47     -10.12492899       2.07494212       8.11254582       0.00045900      -0.00110800      -0.00032800 
      47      -8.11283842       4.08689651       8.11217183       0.00071800      -0.00050300      -0.00067900 
30
Lattice="2.01137384712823 -2.011985670844346 4.023433455057382 -8.08383062599468 8.081781319161726 8.082955785664577 -6.035913356916045 -4.023893158487651 -2.010781756067943" Properties=Z:I:1:pos:R:3:vasp_force:R:3 uuid=77af144b-fd64-4081-ae76-0b4b721379cb vasp_virial="-0.05480877903218309 -0.07021857937368936 0.07862336811093705 -0.07021857937368936 -0.046045622845132916 -0.004223835156218872 0.07862336811093705 -0.004223835156218872 -0.05892541025042688" vasp_energy=-120.19583079 pbc="T T T"
      46      -4.05059906      -3.99772562       0.02670541      -0.00080200       0.00057600      -0.00082500 
      46      -2.03850849      -1.98577122       0.02633142      -0.00030500       0.00108400       0.00031800 
      46       1.98495593      -1.98580250       4.04939089      -0.00077600       0.00115400      -0.00040700 
      46      -2.03886685      -3.99774126       2.03823514      -0.00128600       0.00111100      -0.00075100 
      46      -0.02677628      -1.98578686       2.03786115      -0.00011300       0.00099500      -0.00013900 
      46      -6.03020457      -2.01779984      -0.00447243      -0.00044400      -0.00011500       0.00172700 
      46      -2.00674015      -2.01783111       4.01858703       0.00031400      -0.00029000       0.00088400 
      46      -6.03056294      -4.02976987       2.00743129      -0.00024800      -0.00050400       0.00062800 
      46      -4.01847236      -2.01781548       2.00705730      -0.00051900      -0.00030300       0.00103800 
      46      -2.00638179      -0.00586108       2.00668331       0.00013400      -0.00062200       0.00086100 
      46      -8.04784308      -0.00125059       4.03605309      -0.02543500       0.02575100      -0.05241400 
      46      -6.03983432       2.01478686       4.02751409       0.00074500      -0.00128800       0.00032200 
      46      -8.05228326      -2.00913757       6.03979180       0.00985400      -0.01032700       0.01897900 
      46      -6.04019268       0.00281682       6.03941781       0.01127600      -0.01033600       0.01877400 
      46      -4.02810211       2.01477122       6.03904382       0.00078400      -0.00061200       0.00132000 
      47      -2.00803122       2.00700531       4.01881379      -0.00067100       0.00560500       0.00318000 
      47      -6.03185400      -0.00493345       2.00765805      -0.00521700       0.00123300       0.00328000 
      47      -2.00838958      -0.00496472       6.03071752      -0.00028400       0.00081800      -0.00035300 
      47      -6.03221237      -2.01690348       4.01956177       0.00753600      -0.00705200       0.00001100 
      47      -4.02012179      -0.00494908       4.01918778      -0.00062200       0.00085600       0.00004800 
      47     -10.06479356       2.01565490       4.02964868       0.00767200      -0.00811600       0.00008400 
      47      -6.04132914       2.01562362       8.05270815       0.00044000      -0.00026000       0.00032000 
      47     -10.06515192       0.00368486       6.04155240      -0.00416600      -0.00004000       0.00349300 
      47      -8.05306135       2.01563926       6.04117841       0.00029500       0.00445000       0.00310900 
      47      -6.04097077       4.02759366       6.04080443       0.00073500      -0.00016400      -0.00074800 
      47     -12.13666120       2.07495775       6.10101609      -0.00060700      -0.00096600      -0.00092400 
      47     -10.12457063       4.08691215       6.10064210       0.00040500      -0.00008500      -0.00012300 
      47      -6.10110621       4.08688088      10.12370157       0.00022200      -0.00120000      -0.00084300 
      47     -10.12492899       2.07494212       8.11254582       0.00043700      -0.00091700      -0.00038100 
      47      -8.11283842       4.08689651       8.11217183       0.00064700      -0.00043600      -0.00046500 
30
Lattice="2.01137384712823 -2.011985670844346 4.023433455057382 -8.08383062599468 8.081781319161726 8.082955785664577 -6.035913356916045 -4.023893158487651 -2.010781756067943" Properties=Z:I:1:pos:R:3:vasp_force:R:3 uuid=aeea0bb4-b815-401d-a112-83c9473f3b61 vasp_virial="-0.045040968797823426 -0.0703686648868545 0.07918389155806402 -0.0703686648868545 -0.03642789812393839 -0.00426365376175248 0.07918389155806402 -0.00426365376175248 -0.048431676207492974" vasp_energy=-120.19582865 pbc="T T T"
      46      -4.05059906      -3.99772562       0.02670541      -0.00072100       0.00049200      -0.00058000 
      46      -2.03850849      -1.98577122       0.02633142      -0.00029300       0.00122900       0.00002300 
      46       1.98495593      -1.98580250       4.04939089      -0.00073400       0.00112900      -0.00029600 
      46      -2.03886685      -3.99774126       2.03823514      -0.00126400       0.00106800      -0.00063700 
      46      -0.02677628      -1.98578686       2.03786115      -0.00025600       0.00097900      -0.00043500 
      46      -6.03020457      -2.01779984      -0.00447243      -0.00056200       0.00000100       0.00186800 
      46      -2.00674015      -2.01783111       4.01858703       0.00051300      -0.00025200       0.00101500 
      46      -6.03056294      -4.02976987       2.00743129      -0.00030100      -0.00052900       0.00051800 
      46      -4.01847236      -2.01781548       2.00705730      -0.00049200      -0.00025500       0.00092100 
      46      -2.00638179      -0.00586108       2.00668331       0.00009200      -0.00082500       0.00099600 
      46      -8.05600670       0.00691551       4.01972306       0.02669100      -0.02619600       0.05240200 
      46      -6.03983432       2.01478686       4.02751409       0.00004500      -0.00022600      -0.00258700 
      46      -8.05228326      -2.00913757       6.03979180      -0.00945100       0.00927300      -0.01871500 
      46      -6.04019268       0.00281682       6.03941781      -0.00837500       0.00891500      -0.01892100 
      46      -4.02810211       2.01477122       6.03904382      -0.00027300       0.00009300      -0.00159100 
      47      -2.00803122       2.00700531       4.01881379       0.00003600      -0.00297700      -0.00303600 
      47      -6.03185400      -0.00493345       2.00765805       0.00334500       0.00052700      -0.00292300 
      47      -2.00838958      -0.00496472       6.03071752      -0.00012000       0.00118400      -0.00019600 
      47      -6.03221237      -2.01690348       4.01956177      -0.00725100       0.00773300       0.00036500 
      47      -4.02012179      -0.00494908       4.01918778      -0.00098900       0.00069300       0.00020400 
      47     -10.06479356       2.01565490       4.02964868      -0.00779700       0.00735100       0.00037400 
      47      -6.04132914       2.01562362       8.05270815       0.00055200       0.00018100       0.00060300 
      47     -10.06515192       0.00368486       6.04155240       0.00498700      -0.00081300      -0.00290700 
      47      -8.05306135       2.01563926       6.04117841       0.00106700      -0.00472500      -0.00330400 
      47      -6.04097077       4.02759366       6.04080443       0.00029200      -0.00027900      -0.00046800 
      47     -12.13666120       2.07495775       6.10101609      -0.00052200      -0.00085900      -0.00103800 
      47     -10.12457063       4.08691215       6.10064210       0.00029700      -0.00017400      -0.00023900 
      47      -6.10110621       4.08688088      10.12370157       0.00028700      -0.00122800      -0.00072900 
      47     -10.12492899       2.07494212       8.11254582       0.00052200      -0.00100600      -0.00033500 
      47      -8.11283842       4.08689651       8.11217183       0.00067500      -0.00050300      -0.00035200 
30
Lattice="2.01137384712823 -2.011985670844346 4.023433455057382 -8.08383062599468 8.081781319161726 8.082955785664577 -6.035913356916045 -4.023893158487651 -2.010781756067943" Properties=Z:I:1:pos:R:3:vasp_force:R:3 uuid=5f088f20-5f20-4d25-a9da-cbe40d957a30 vasp_virial="-0.05464644164039224 -0.0706320802773076 0.0777473587891977 -0.0706320802773076 -0.046106882238261544 -0.0030476548081492224 0.0777473587891977 -0.0030476548081492224 -0.05903874012771483" vasp_energy=-120.19576622 pbc="T T T"
      46      -4.05059906      -3.99772562       0.02670541      -0.00082000       0.00060700      -0.00075100 
      46      -2.03850849      -1.98577122       0.02633142      -0.00018000       0.00128100       0.00027000 
      46       1.98495593      -1.98580250       4.04939089      -0.00079300       0.00107800      -0.00042500 
      46      -2.03886685      -3.99774126       2.03823514      -0.00119700       0.00114400      -0.00076700 
      46      -0.02677628      -1.98578686       2.03786115      -0.00029600       0.00088000      -0.00018700 
      46      -6.03020457      -2.01779984      -0.00447243      -0.00070500       0.00016200       0.00212500 
      46      -2.00674015      -2.01783111       4.01858703       0.00040500      -0.00033400       0.00089100 
      46      -6.03056294      -4.02976987       2.00743129      -0.00031100      -0.00025400       0.00062300 
      46      -4.01847236      -2.01781548       2.00705730      -0.00075400      -0.00022800       0.00103000 
      46      -2.00638179      -0.00586108       2.00668331       0.00018900      -0.00070100       0.00087100 
      46      -8.05769909       0.00860519       4.03366165       0.04423800      -0.04428900      -0.04309100 
      46      -6.03983432       2.01478686       4.02751409       0.00084200      -0.00125500      -0.00123900 
      46      -8.05228326      -2.00913757       6.03979180      -0.00023900       0.00031500       0.00030800 
      46      -6.04019268       0.00281682       6.03941781       0.00062200      -0.00025500       0.00010100 
      46      -4.02810211       2.01477122       6.03904382       0.00076300      -0.00069700      -0.00024300 
      47      -2.00803122       2.00700531       4.01881379       0.00011600       0.01164200       0.01033700 
      47      -6.03185400      -0.00493345       2.00765805      -0.01122700       0.00046100       0.01042100 
      47      -2.00838958      -0.00496472       6.03071752      -0.00022400       0.00131300      -0.00025100 
      47      -6.03221237      -2.01690348       4.01956177      -0.01014300       0.01064000      -0.00009500 
      47      -4.02012179      -0.00494908       4.01918778      -0.00110400       0.00081100       0.00015100 
      47     -10.06479356       2.01565490       4.02964868      -0.01116300       0.01073200      -0.00021600 
      47      -6.04132914       2.01562362       8.05270815       0.00048000       0.00032100       0.00052600 
      47     -10.06515192       0.00368486       6.04155240      -0.01083600      -0.00103900       0.01149400 
      47      -8.05306135       2.01563926       6.04117841       0.00130700       0.01115200       0.01113200 
      47      -6.04097077       4.02759366       6.04080443       0.00016600      -0.00019000      -0.00054200 
      47     -12.13666120       2.07495775       6.10101609      -0.00093800      -0.00080000      -0.00086100 
      47     -10.12457063       4.08691215       6.10064210       0.00025300       0.00025800      -0.00006000 
      47      -6.10110621       4.08688088      10.12370157       0.00041000      -0.00125200      -0.00096400 
      47     -10.12492899       2.07494212       8.11254582       0.00042500      -0.00089300      -0.00000400 
      47      -8.11283842       4.08689651       8.11217183       0.00071300      -0.00061000      -0.00058500 
30
Lattice="2.01137384712823 -2.011985670844346 4.023433455057382 -8.08383062599468 8.081781319161726 8.082955785664577 -6.035913356916045 -4.023893158487651 -2.010781756067943" Properties=Z:I:1:pos:R:3:vasp_force:R:3 uuid=fa46dfd2-b130-4f80-a914-c39b1e524f9e vasp_virial="-0.059504311515492396 -0.07084036221394494 0.07789131836304998 -0.07084036221394494 -0.0509341224167974 -0.0025146980879301624 0.07789131836304998 -0.0025146980879301624 -0.062349810326317145" vasp_energy=-120.19578116 pbc="T T T"
      46      -4.05059906      -3.99772562       0.02670541      -0.00068500       0.00048000      -0.00069500 
      46      -2.03850849      -1.98577122       0.02633142      -0.00042000       0.00104400       0.00003600 
      46       1.98495593      -1.98580250       4.04939089      -0.00070400       0.00122300      -0.00030800 
      46      -2.03886685      -3.99774126       2.03823514      -0.00134500       0.00106100      -0.00064600 
      46      -0.02677628      -1.98578686       2.03786115      -0.00006300       0.00111000      -0.00042300 
      46      -6.03020457      -2.01779984      -0.00447243      -0.00027300      -0.00026700       0.00142400 
      46      -2.00674015      -2.01783111       4.01858703       0.00044700      -0.00021100       0.00095500 
      46      -6.03056294      -4.02976987       2.00743129      -0.00019600      -0.00077500       0.00046200 
      46      -4.01847236      -2.01781548       2.00705730      -0.00022700      -0.00034500       0.00086500 
      46      -2.00638179      -0.00586108       2.00668331       0.00005700      -0.00074700       0.00093400 
      46      -8.04615069      -0.00294028       4.02211450      -0.04310100       0.04315500       0.04388300 
      46      -6.03983432       2.01478686       4.02751409      -0.00005700      -0.00022900      -0.00104700 
      46      -8.05228326      -2.00913757       6.03979180       0.00113800      -0.00084800      -0.00006800 
      46      -6.04019268       0.00281682       6.03941781       0.00178600      -0.00163400      -0.00027300 
      46      -4.02810211       2.01477122       6.03904382      -0.00025400       0.00021100      -0.00005000 
      47      -2.00803122       2.00700531       4.01881379      -0.00084600      -0.00935600      -0.01063600 
      47      -6.03185400      -0.00493345       2.00765805       0.00972200       0.00142200      -0.01050400 
      47      -2.00838958      -0.00496472       6.03071752      -0.00019300       0.00073100      -0.00031000 
      47      -6.03221237      -2.01690348       4.01956177       0.01064600      -0.01014900       0.00058800 
      47      -4.02012179      -0.00494908       4.01918778      -0.00052200       0.00077900       0.00008900 
      47     -10.06479356       2.01565490       4.02964868       0.01079600      -0.01122800       0.00050600 
      47      -6.04132914       2.01562362       8.05270815       0.00051400      -0.00038200       0.00037400 