  30
   1   1
     7.109004674559084    -0.007821958167185     0.011235747693349
     0.041203635624123     6.996887219415831    -0.001688380249473
    -0.002269753764166     0.014758120636562     7.636549474118436
   1   2
    -0.912206386773752    -0.762913747754036    -0.020505654214255
    -0.759475847020523    -0.754546361202373    -0.003528757213692
     0.021000489686087    -0.001156795866613     0.106133509446718
   1   3
    -0.748017346657717     0.765700798533456    -0.000120109923507
     0.760022119462897    -0.896018049665118    -0.024674326923687
     0.001894962475947     0.018834834559003     0.109506149327078
   1   4
    -0.748044752547307     0.761643514686218     0.001611165698035
     0.764133703608602    -0.895956624865708     0.019043231988991
     0.000459751508650    -0.025333066704775     0.109490871666970
   1   5
    -0.912196103648929    -0.758033211626045     0.020509972038744
    -0.764361371079490    -0.754485887581133    -0.000566583961549
    -0.019945985092348    -0.004036106153246     0.106387333323359
   1   6
    -1.044294544349464    -0.026474498972896     1.204522324107474
    -0.029424897351564     0.036724857160049     0.007144242794428
     1.200516874460365     0.013810084591369    -1.009240318116275
   1   7
     0.028520593671191     0.021056242099017    -0.000830696055853
     0.015553241808962    -1.029918049876485    -1.195347841129249
     0.002454232964227    -1.193941235063340    -1.007839377022265
   1   8
    -0.134391191822000    -0.007396417152079    -0.002695405668661
     0.002224473312035    -0.138779589168044     0.001660331601071
    -0.003964013351222     0.001922745712362    -0.102949993905902
   1   9
     0.033786612049371     0.023252281368198    -0.000345593391395
     0.019989000970910    -1.025156519219377     1.203880687004288
    -0.002179242554292     1.197026735267799    -1.010769828331950
   1  10
    -1.035691599164172    -0.022081435307294    -1.193280902723775
    -0.028773846452626     0.033628159510726    -0.006896087023822
    -1.187962552293422    -0.011469282010638    -0.993319764922048
   1  11
    -0.007117100820828     0.007377023100752    -0.000825613847583
     0.003551667491467     0.009344858140483     0.009036512973696
    -0.004858493480273     0.005053285076031    -0.003989316230295
   1  12
    -0.009335657322793     0.000555876539663     0.005791413734628
    -0.004814095895117     0.000888620620448    -0.003919544382014
     0.002859534656660     0.001552175930823    -0.010639201010294
   1  13
     0.016639613510038    -0.006457673558812    -0.001363339796817
     0.005177689425491     0.008083359052142     0.000131697867994
    -0.000694524544715    -0.000567923146102     0.012228650313743
   1  14
    -0.005842161824625     0.000531234844401    -0.007487250212110
    -0.004848512845906    -0.013115055227107    -0.001095682663106
    -0.002860431388688    -0.005683112532836    -0.000896495178319
   1  15
    -0.005518117715192     0.001554804700426    -0.003226218737578
    -0.004219522759647    -0.000510840629856    -0.005129379201299
     0.001265846720157    -0.003650086878589    -0.011356898588331
   1  16
    -0.037635550435893     0.002753722047176    -0.032666415002513
    -0.003630298570449     0.014287240196762     0.005153803460472
    -0.014451766844342     0.002867906788759    -0.041997425453649
   1  17
     0.027954457913571    -0.003449143614282    -0.003225242391071
     0.005663893645118     0.033037836687823     0.000407546016312
     0.003507252899322    -0.001040044552642    -0.043037049312073
   1  18
    -0.033921748395977     0.002184629849715     0.029154770045850
    -0.000818805458360     0.014507213960942    -0.009217060961153
     0.011731813371902    -0.005322838619369    -0.031997677750419
   1  19
     0.016270912795243     0.003685193256827     0.011990235235387
     0.000178186054550    -0.031618311059691     0.030424211952568
     0.002788738550524     0.013826241529701    -0.038898658451496
   1  20
     0.012415868454102     0.000260252820540    -0.010359262025565
    -0.004924211106887    -0.029117930964962    -0.024628506902370
    -0.005582528762328    -0.013056703910554    -0.038069821234161
   1  21
     0.001724783552953     0.004850133572515    -0.024944165213983
    -0.002803568092218     0.000954543092018    -0.016700106588012
    -0.010156440837993    -0.011604176013867    -0.008924126102602
   1  22
     0.015650556793313    -0.005859428821259     0.002291440626708
     0.008886859717183     0.019354863500343     0.002245630142075
     0.000656539845152    -0.002817590735243    -0.013724692194018
   1  23
    -0.003099203693907     0.004205976973449     0.019939496366318
    -0.003441391585741    -0.001355386456347     0.016761620685148
     0.007187592729894     0.009604140020736    -0.005161148005060
   1  24
    -0.005936210437664    -0.003034234083473    -0.013728988945145
    -0.007030175599636     0.000415464160474     0.022168657845125
    -0.012467146603070     0.010170263913091    -0.002122330794562
   1  25
    -0.003805016581442     0.000949673742185     0.012483558600324
    -0.003762655360185     0.003057395137285    -0.025202792876893
     0.010636558377097    -0.008597535893777    -0.000923369084906
   1  26
    -0.891139807302584    -0.005228016483793     1.063225008585824
    -0.008886898298125     0.103853809742567    -0.002095805658754
     0.947692290601497     0.001852910134050    -0.924790216541769
   1  27
    -0.886929493521342    -0.004671041492973    -1.061021484246380
    -0.007737146398910     0.104936619358365     0.007133662257262
    -0.944028521797288    -0.001289317681649    -0.921378151493260
   1  28
     0.100945211731737     0.006929782970326     0.003919255733707
     0.005207311572685    -0.886464671164708     1.063730957907888
    -0.000414928562073     0.945201835148616    -0.922107533557808
   1  29
    -0.033133012390181    -0.001768498851428    -0.005084111147452
     0.002308616579247    -0.030863271529388    -0.002737914628898
    -0.001721390274533    -0.000998481495890    -0.011479347696542
   1  30
     0.095342036707534     0.007693895910981    -0.004963460499284
     0.004853477211741    -0.892055353867063    -1.065493865887319
    -0.001094915082683    -0.945914763676514    -0.924683864938819
   2   1
    -0.912196103648930    -0.758033211626045     0.020509972038744
    -0.764361371079490    -0.754485887581133    -0.000566583961548
    -0.019945985092348    -0.004036106153246     0.106387333323359
   2   2
     7.109004674559087    -0.007821958167185     0.011235747693348
     0.041203635624123     6.996887219415831    -0.001688380249473
    -0.002269753764166     0.014758120636562     7.636549474118434
   2   3
    -0.912206386773753    -0.762913747754036    -0.020505654214255
    -0.759475847020523    -0.754546361202373    -0.003528757213692
     0.021000489686087    -0.001156795866613     0.106133509446718
   2   4
    -0.748017346657717     0.765700798533456    -0.000120109923507
     0.760022119462897    -0.896018049665118    -0.024674326923687
     0.001894962475947     0.018834834559003     0.109506149327078
   2   5
    -0.748044752547308     0.761643514686218     0.001611165698035
     0.764133703608602    -0.895956624865708     0.019043231988991
     0.000459751508651    -0.025333066704775     0.109490871666969
   2   6
    -1.035691599164172    -0.022081435307294    -1.193280902723775
    -0.028773846452626     0.033628159510726    -0.006896087023822
    -1.187962552293422    -0.011469282010638    -0.993319764922048
   2   7
    -1.044294544349464    -0.026474498972896     1.204522324107474
    -0.029424897351564     0.036724857160049     0.007144242794428
     1.200516874460365     0.013810084591369    -1.009240318116275
   2   8
     0.028520593671191     0.021056242099017    -0.000830696055853
     0.015553241808962    -1.029918049876485    -1.195347841129249
     0.002454232964227    -1.193941235063340    -1.007839377022265
   2   9
    -0.134391191822000    -0.007396417152079    -0.002695405668661
     0.002224473312035    -0.138779589168044     0.001660331601071
    -0.003964013351222     0.001922745712362    -0.102949993905902
   2  10
     0.033786612049371     0.023252281368198    -0.000345593391395
     0.019989000970910    -1.025156519219377     1.203880687004288
    -0.002179242554292     1.197026735267799    -1.010769828331950
   2  11
    -0.005518117715192     0.001554804700426    -0.003226218737578
    -0.004219522759647    -0.000510840629856    -0.005129379201299
     0.001265846720157    -0.003650086878589    -0.011356898588331
   2  12
    -0.007117100820828     0.007377023100752    -0.000825613847583
     0.003551667491467     0.009344858140483     0.009036512973696
    -0.004858493480273     0.005053285076031    -0.003989316230295
   2  13
    -0.009335657322793     0.000555876539663     0.005791413734628
    -0.004814095895117     0.000888620620448    -0.003919544382014
     0.002859534656660     0.001552175930823    -0.010639201010294
   2  14
     0.016639613510038    -0.006457673558812    -0.001363339796817
     0.005177689425491     0.008083359052142     0.000131697867994
    -0.000694524544715    -0.000567923146102     0.012228650313743
   2  15
    -0.005842161824625     0.000531234844401    -0.007487250212110
    -0.004848512845906    -0.013115055227107    -0.001095682663106
    -0.002860431388688    -0.005683112532836    -0.000896495178319
   2  16
     0.012415868454102     0.000260252820540    -0.010359262025565
    -0.004924211106887    -0.029117930964962    -0.024628506902370
    -0.005582528762328    -0.013056703910554    -0.038069821234161
   2  17
    -0.037635550435893     0.002753722047176    -0.032666415002513
    -0.003630298570449     0.014287240196762     0.005153803460472
    -0.014451766844342     0.002867906788759    -0.041997425453649
   2  18
     0.027954457913571    -0.003449143614282    -0.003225242391071
     0.005663893645118     0.033037836687823     0.000407546016312
     0.003507252899322    -0.001040044552642    -0.043037049312073
   2  19
    -0.033921748395977     0.002184629849715     0.029154770045850
    -0.000818805458360     0.014507213960942    -0.009217060961153
     0.011731813371902    -0.005322838619369    -0.031997677750419
   2  20
     0.016270912795243     0.003685193256827     0.011990235235387
     0.000178186054550    -0.031618311059691     0.030424211952568
     0.002788738550524     0.013826241529701    -0.038898658451496
   2  21
    -0.003805016581442     0.000949673742185     0.012483558600324
    -0.003762655360185     0.003057395137285    -0.025202792876893
     0.010636558377097    -0.008597535893777    -0.000923369084906
   2  22
     0.001724783552953     0.004850133572515    -0.024944165213983
    -0.002803568092218     0.000954543092018    -0.016700106588012
    -0.010156440837993    -0.011604176013867    -0.008924126102602
   2  23
     0.015650556793313    -0.005859428821259     0.002291440626708
     0.008886859717183     0.019354863500343     0.002245630142075
     0.000656539845152    -0.002817590735243    -0.013724692194018
   2  24
    -0.003099203693907     0.004205976973449     0.019939496366318
    -0.003441391585741    -0.001355386456347     0.016761620685148
     0.007187592729894     0.009604140020736    -0.005161148005060
   2  25
    -0.005936210437664    -0.003034234083473    -0.013728988945145
    -0.007030175599636     0.000415464160474     0.022168657845125
    -0.012467146603070     0.010170263913091    -0.002122330794562
   2  26
     0.095342036707534     0.007693895910981    -0.004963460499284
     0.004853477211741    -0.892055353867063    -1.065493865887318
    -0.001094915082683    -0.945914763676514    -0.924683864938819
   2  27
    -0.891139807302584    -0.005228016483794     1.063225008585824
    -0.008886898298125     0.103853809742567    -0.002095805658754
     0.947692290601497     0.001852910134050    -0.924790216541769
   2  28
    -0.886929493521343    -0.004671041492973    -1.061021484246380
    -0.007737146398910     0.104936619358365     0.007133662257262
    -0.944028521797288    -0.001289317681649    -0.921378151493259
   2  29
     0.100945211731737     0.006929782970326     0.003919255733707
     0.005207311572685    -0.886464671164708     1.063730957907888
    -0.000414928562073     0.945201835148615    -0.922107533557808
   2  30
    -0.033133012390181    -0.001768498851428    -0.005084111147452
     0.002308616579247    -0.030863271529388    -0.002737914628898
    -0.001721390274533    -0.000998481495890    -0.011479347696542
   3   1
    -0.748044752547308     0.761643514686218     0.001611165698035
     0.764133703608602    -0.895956624865708     0.019043231988991
     0.000459751508651    -0.025333066704775     0.109490871666969
   3   2
    -0.912196103648930    -0.758033211626045     0.020509972038744
    -0.764361371079490    -0.754485887581133    -0.000566583961548
    -0.019945985092348    -0.004036106153246     0.106387333323359
   3   3
     7.109004674559087    -0.007821958167185     0.011235747693348
     0.041203635624123     6.996887219415831    -0.001688380249473
    -0.002269753764166     0.014758120636562     7.636549474118434
   3   4
    -0.912206386773753    -0.762913747754036    -0.020505654214255
    -0.759475847020523    -0.754546361202373    -0.003528757213692
     0.021000489686087    -0.001156795866613     0.106133509446718
   3   5
    -0.748017346657717     0.765700798533456    -0.000120109923507
     0.760022119462897    -0.896018049665118    -0.024674326923687
     0.001894962475947     0.018834834559003     0.109506149327078
   3   6
     0.033786612049371     0.023252281368198    -0.000345593391395
     0.019989000970910    -1.025156519219377     1.203880687004288
    -0.002179242554292     1.197026735267799    -1.010769828331950
   3   7
    -1.035691599164172    -0.022081435307294    -1.193280902723775
    -0.028773846452626     0.033628159510726    -0.006896087023822
    -1.187962552293422    -0.011469282010638    -0.993319764922048
   3   8
    -1.044294544349464    -0.026474498972896     1.204522324107474
    -0.029424897351564     0.036724857160049     0.007144242794428
     1.200516874460365     0.013810084591369    -1.009240318116275
   3   9
     0.028520593671191     0.021056242099017    -0.000830696055853
     0.015553241808962    -1.029918049876485    -1.195347841129249
     0.002454232964227    -1.193941235063340    -1.007839377022265
   3  10
    -0.134391191822000    -0.007396417152079    -0.002695405668661
     0.002224473312035    -0.138779589168044     0.001660331601071
    -0.003964013351222     0.001922745712362    -0.102949993905902
   3  11
    -0.005842161824625     0.000531234844401    -0.007487250212110
    -0.004848512845906    -0.013115055227107    -0.001095682663106
    -0.002860431388688    -0.005683112532836    -0.000896495178319
   3  12
    -0.005518117715192     0.001554804700426    -0.003226218737578
    -0.004219522759647    -0.000510840629856    -0.005129379201299
     0.001265846720157    -0.003650086878589    -0.011356898588331
   3  13
    -0.007117100820828     0.007377023100752    -0.000825613847583
     0.003551667491467     0.009344858140483     0.009036512973696
    -0.004858493480273     0.005053285076031    -0.003989316230295
   3  14
    -0.009335657322793     0.000555876539663     0.005791413734628
    -0.004814095895117     0.000888620620448    -0.003919544382014
     0.002859534656660     0.001552175930823    -0.010639201010294
   3  15
     0.016639613510038    -0.006457673558812    -0.001363339796817
     0.005177689425491     0.008083359052142     0.000131697867994
    -0.000694524544715    -0.000567923146102     0.012228650313743
   3  16
     0.016270912795243     0.003685193256827     0.011990235235387
     0.000178186054550    -0.031618311059691     0.030424211952568
     0.002788738550524     0.013826241529701    -0.038898658451496
   3  17
     0.012415868454102     0.000260252820540    -0.010359262025565
    -0.004924211106887    -0.029117930964962    -0.024628506902370
    -0.005582528762328    -0.013056703910554    -0.038069821234161
   3  18
    -0.037635550435893     0.002753722047176    -0.032666415002513
    -0.003630298570449     0.014287240196762     0.005153803460472
    -0.014451766844342     0.002867906788759    -0.041997425453649
   3  19
     0.027954457913571    -0.003449143614282    -0.003225242391071
     0.005663893645118     0.033037836687823     0.000407546016312
     0.003507252899322    -0.001040044552642    -0.043037049312073
   3  20
    -0.033921748395977     0.002184629849715     0.029154770045850
    -0.000818805458360     0.014507213960942    -0.009217060961153
     0.011731813371902    -0.005322838619369    -0.031997677750419
   3  21
    -0.005936210437664    -0.003034234083473    -0.013728988945145
    -0.007030175599636     0.000415464160474     0.022168657845125
    -0.012467146603070     0.010170263913091    -0.002122330794562
   3  22
    -0.003805016581442     0.000949673742185     0.012483558600324
    -0.003762655360185     0.003057395137285    -0.025202792876893
     0.010636558377097    -0.008597535893777    -0.000923369084906
   3  23
     0.001724783552953     0.004850133572515    -0.024944165213983
    -0.002803568092218     0.000954543092018    -0.016700106588012
    -0.010156440837993    -0.011604176013867    -0.008924126102602
   3  24
     0.015650556793313    -0.005859428821259     0.002291440626708
     0.008886859717183     0.019354863500343     0.002245630142075
     0.000656539845152    -0.002817590735243    -0.013724692194018
   3  25
    -0.003099203693907     0.004205976973449     0.019939496366318
    -0.003441391585741    -0.001355386456347     0.016761620685148
     0.007187592729894     0.009604140020736    -0.005161148005060
   3  26
    -0.033133012390181    -0.001768498851428    -0.005084111147452
     0.002308616579247    -0.030863271529388    -0.002737914628898
    -0.001721390274533    -0.000998481495890    -0.011479347696542
   3  27
     0.095342036707534     0.007693895910981    -0.004963460499284
     0.004853477211741    -0.892055353867063    -1.065493865887318
    -0.001094915082683    -0.945914763676514    -0.924683864938819
   3  28
    -0.891139807302584    -0.005228016483794     1.063225008585824
    -0.008886898298125     0.103853809742567    -0.002095805658754
     0.947692290601497     0.001852910134050    -0.924790216541769
   3  29
    -0.886929493521343    -0.004671041492973    -1.061021484246380
    -0.007737146398910     0.104936619358365     0.007133662257262
    -0.944028521797288    -0.001289317681649    -0.921378151493259
   3  30
     0.100945211731737     0.006929782970326     0.003919255733707
     0.005207311572685    -0.886464671164708     1.063730957907888
    -0.000414928562073     0.945201835148615    -0.922107533557808
   4   1
    -0.748017346657717     0.765700798533456    -0.000120109923507
     0.760022119462897    -0.896018049665118    -0.024674326923687
     0.001894962475947     0.018834834559003     0.109506149327078
   4   2
    -0.748044752547308     0.761643514686218     0.001611165698035
     0.764133703608602    -0.895956624865708     0.019043231988991
     0.000459751508651    -0.025333066704775     0.109490871666969
   4   3
    -0.912196103648930    -0.758033211626045     0.020509972038744
    -0.764361371079490    -0.754485887581133    -0.000566583961548
    -0.019945985092348    -0.004036106153246     0.106387333323359
   4   4
     7.109004674559087    -0.007821958167185     0.011235747693348
     0.041203635624123     6.996887219415831    -0.001688380249473
    -0.002269753764166     0.014758120636562     7.636549474118434
   4   5
    -0.912206386773753    -0.762913747754036    -0.020505654214255
    -0.759475847020523    -0.754546361202373    -0.003528757213692
     0.021000489686087    -0.001156795866613     0.106133509446718
   4   6
    -0.134391191822000    -0.007396417152079    -0.002695405668661
     0.002224473312035    -0.138779589168044     0.001660331601071
    -0.003964013351222     0.001922745712362    -0.102949993905902
   4   7
     0.033786612049371     0.023252281368198    -0.000345593391395
     0.019989000970910    -1.025156519219377     1.203880687004288
    -0.002179242554292     1.197026735267799    -1.010769828331950
   4   8
    -1.035691599164172    -0.022081435307294    -1.193280902723775
    -0.028773846452626     0.033628159510726    -0.006896087023822
    -1.187962552293422    -0.011469282010638    -0.993319764922048
   4   9
    -1.044294544349464    -0.026474498972896     1.204522324107474
    -0.029424897351564     0.036724857160049     0.007144242794428
     1.200516874460365     0.013810084591369    -1.009240318116275
   4  10
     0.028520593671191     0.021056242099017    -0.000830696055853
     0.015553241808962    -1.029918049876485    -1.195347841129249
     0.002454232964227    -1.193941235063340    -1.007839377022265
   4  11
     0.016639613510038    -0.006457673558812    -0.001363339796817
     0.005177689425491     0.008083359052142     0.000131697867994
    -0.000694524544715    -0.000567923146102     0.012228650313743
   4  12
    -0.005842161824625     0.000531234844401    -0.007487250212110
    -0.004848512845906    -0.013115055227107    -0.001095682663106
    -0.002860431388688    -0.005683112532836    -0.000896495178319
   4  13
    -0.005518117715192     0.001554804700426    -0.003226218737578
    -0.004219522759647    -0.000510840629856    -0.005129379201299
     0.001265846720157    -0.003650086878589    -0.011356898588331
   4  14
    -0.007117100820828     0.007377023100752    -0.000825613847583
     0.003551667491467     0.009344858140483     0.009036512973696
    -0.004858493480273     0.005053285076031    -0.003989316230295
   4  15
    -0.009335657322793     0.000555876539663     0.005791413734628
    -0.004814095895117     0.000888620620448    -0.003919544382014
     0.002859534656660     0.001552175930823    -0.010639201010294
   4  16
    -0.033921748395977     0.002184629849715     0.029154770045850
    -0.000818805458360     0.014507213960942    -0.009217060961153
     0.011731813371902    -0.005322838619369    -0.031997677750419
   4  17
     0.016270912795243     0.003685193256827     0.011990235235387
     0.000178186054550    -0.031618311059691     0.030424211952568
     0.002788738550524     0.013826241529701    -0.038898658451496
   4  18
     0.012415868454102     0.000260252820540    -0.010359262025565
    -0.004924211106887    -0.029117930964962    -0.024628506902370
    -0.005582528762328    -0.013056703910554    -0.038069821234161
   4  19
    -0.037635550435893     0.002753722047176    -0.032666415002513
    -0.003630298570449     0.014287240196762     0.005153803460472
    -0.014451766844342     0.002867906788759    -0.041997425453649
   4  20
     0.027954457913571    -0.003449143614282    -0.003225242391071
     0.005663893645118     0.033037836687823     0.000407546016312
     0.003507252899322    -0.001040044552642    -0.043037049312073
   4  21
    -0.003099203693907     0.004205976973449     0.019939496366318
    -0.003441391585741    -0.001355386456347     0.016761620685148
     0.007187592729894     0.009604140020736    -0.005161148005060
   4  22
    -0.005936210437664    -0.003034234083473    -0.013728988945145
    -0.007030175599636     0.000415464160474     0.022168657845125
    -0.012467146603070     0.010170263913091    -0.002122330794562
   4  23
    -0.003805016581442     0.000949673742185     0.012483558600324
    -0.003762655360185     0.003057395137285    -0.025202792876893
     0.010636558377097    -0.008597535893777    -0.000923369084906
   4  24
     0.001724783552953     0.004850133572515    -0.024944165213983
    -0.002803568092218     0.000954543092018    -0.016700106588012
    -0.010156440837993    -0.011604176013867    -0.008924126102602
   4  25
     0.015650556793313    -0.005859428821259     0.002291440626708
     0.008886859717183     0.019354863500343     0.002245630142075
     0.000656539845152    -0.002817590735243    -0.013724692194018
   4  26
     0.100945211731737     0.006929782970326     0.003919255733707
     0.005207311572685    -0.886464671164708     1.063730957907888
    -0.000414928562073     0.945201835148615    -0.922107533557808
   4  27
    -0.033133012390181    -0.001768498851428    -0.005084111147452
     0.002308616579247    -0.030863271529388    -0.002737914628898
    -0.001721390274533    -0.000998481495890    -0.011479347696542
   4  28
     0.095342036707534     0.007693895910981    -0.004963460499284
     0.004853477211741    -0.892055353867063    -1.065493865887318
    -0.001094915082683    -0.945914763676514    -0.924683864938819
   4  29
    -0.891139807302584    -0.005228016483794     1.063225008585824
    -0.008886898298125     0.103853809742567    -0.002095805658754
     0.947692290601497     0.001852910134050    -0.924790216541769
   4  30
    -0.886929493521343    -0.004671041492973    -1.061021484246380
    -0.007737146398910     0.104936619358365     0.007133662257262
    -0.944028521797288    -0.001289317681649    -0.921378151493259
   5   1
    -0.912206386773753    -0.762913747754036    -0.020505654214255
    -0.759475847020523    -0.754546361202373    -0.003528757213692
     0.021000489686087    -0.001156795866613     0.106133509446718
   5   2
    -0.748017346657717     0.765700798533456    -0.000120109923507
     0.760022119462897    -0.896018049665118    -0.024674326923687
     0.001894962475947     0.018834834559003     0.109506149327078
   5   3
    -0.748044752547308     0.761643514686218     0.001611165698035
     0.764133703608602    -0.895956624865708     0.019043231988991
     0.000459751508651    -0.025333066704775     0.109490871666969
   5   4
    -0.912196103648930    -0.758033211626045     0.020509972038744
    -0.764361371079490    -0.754485887581133    -0.000566583961548
    -0.019945985092348    -0.004036106153246     0.106387333323359
   5   5
     7.109004674559087    -0.007821958167185     0.011235747693348
     0.041203635624123     6.996887219415831    -0.001688380249473
    -0.002269753764166     0.014758120636562     7.636549474118434
   5   6
     0.028520593671191     0.021056242099017    -0.000830696055853
     0.015553241808962    -1.029918049876485    -1.195347841129249
     0.002454232964227    -1.193941235063340    -1.007839377022265
   5   7
    -0.134391191822000    -0.007396417152079    -0.002695405668661
     0.002224473312035    -0.138779589168044     0.001660331601071
    -0.003964013351222     0.001922745712362    -0.102949993905902
   5   8
     0.033786612049371     0.023252281368198    -0.000345593391395
     0.019989000970910    -1.025156519219377     1.203880687004288
    -0.002179242554292     1.197026735267799    -1.010769828331950
   5   9
    -1.035691599164172    -0.022081435307294    -1.193280902723775
    -0.028773846452626     0.033628159510726    -0.006896087023822
    -1.187962552293422    -0.011469282010638    -0.993319764922048
   5  10
    -1.044294544349464    -0.026474498972896     1.204522324107474
    -0.029424897351564     0.036724857160049     0.007144242794428
     1.200516874460365     0.013810084591369    -1.009240318116275
   5  11
    -0.009335657322793     0.000555876539663     0.005791413734628
    -0.004814095895117     0.000888620620448    -0.003919544382014
     0.002859534656660     0.001552175930823    -0.010639201010294
   5  12
     0.016639613510038    -0.006457673558812    -0.001363339796817
     0.005177689425491     0.008083359052142     0.000131697867994
    -0.000694524544715    -0.000567923146102     0.012228650313743
   5  13
    -0.005842161824625     0.000531234844401    -0.007487250212110
    -0.004848512845906    -0.013115055227107    -0.001095682663106
    -0.002860431388688    -0.005683112532836    -0.000896495178319
   5  14
    -0.005518117715192     0.001554804700426    -0.003226218737578
    -0.004219522759647    -0.000510840629856    -0.005129379201299
     0.001265846720157    -0.003650086878589    -0.011356898588331
   5  15
    -0.007117100820828     0.007377023100752    -0.000825613847583
     0.003551667491467     0.009344858140483     0.009036512973696
    -0.004858493480273     0.005053285076031    -0.003989316230295
   5  16
     0.027954457913571    -0.003449143614282    -0.003225242391071
     0.005663893645118     0.033037836687823     0.000407546016312
     0.003507252899322    -0.001040044552642    -0.043037049312073
   5  17
    -0.033921748395977     0.002184629849715     0.029154770045850
    -0.000818805458360     0.014507213960942    -0.009217060961153
     0.011731813371902    -0.005322838619369    -0.031997677750419
   5  18
     0.016270912795243     0.003685193256827     0.011990235235387
     0.000178186054550    -0.031618311059691     0.030424211952568
     0.002788738550524     0.013826241529701    -0.038898658451496
   5  19
     0.012415868454102     0.000260252820540    -0.010359262025565
    -0.004924211106887    -0.029117930964962    -0.024628506902370
    -0.005582528762328    -0.013056703910554    -0.038069821234161
   5  20
    -0.037635550435893     0.002753722047176    -0.032666415002513
    -0.003630298570449     0.014287240196762     0.005153803460472
    -0.014451766844342     0.002867906788759    -0.041997425453649
   5  21
     0.015650556793313    -0.005859428821259     0.002291440626708
     0.008886859717183     0.019354863500343     0.002245630142075
     0.000656539845152    -0.002817590735243    -0.013724692194018
   5  22
    -0.003099203693907     0.004205976973449     0.019939496366318
    -0.003441391585741    -0.001355386456347     0.016761620685148
     0.007187592729894     0.009604140020736    -0.005161148005060
   5  23
    -0.005936210437664    -0.003034234083473    -0.013728988945145
    -0.007030175599636     0.000415464160474     0.022168657845125