30
Lattice="2.009952531310006 -6.0251309523268315 0.0001869926500343 2.0104966127432706 2.0081294895407433 12.190015469600754 -6.025379219508239 -2.0068838171128855 -0.0012266870765149" Properties=Z:I:1:pos:R:3:vasp_force:R:3 uuid=b2f83b0b-db73-4bd0-980f-d5fe96bc7ebe vasp_virial="-0.07841099020188597 0.11612805750447613 -0.1616892927505504 0.11612805750447613 -0.04146422264648459 -0.010069137332774475 -0.1616892927505504 -0.010069137332774475 0.02579430029928969" vasp_energy=-120.24016621 pbc="T T T"
      46      -2.00446790      -6.03400747       0.05979427      -0.01946400       0.06949500       0.00111700 
      46       0.00052877      -4.01674166       0.06024725      -0.00184000      -0.00133900       0.00043100 
      46      -4.01668927      -4.01584576       0.05947384       0.01199800      -0.00785500       0.00086800 
      46      -2.00852809      -2.00806605       0.05992711       0.01298300      -0.00809300       0.00008500 
      46      -0.00036690      -0.00028633       0.06038039      -0.00273200      -0.00183300      -0.00041600 
      46      -4.01520393      -6.02343397       1.99506575       0.00026700      -0.00405700      -0.00245400 
      46      -2.00704275      -4.01565425       1.99551902      -0.00215900      -0.01249000      -0.00966400 
      46       0.00111843      -2.00787454       1.99597230      -0.00125000      -0.00471500       0.00122100 
      46      -4.01609961      -2.00697864       1.99519889      -0.00230500      -0.01196700       0.01234400 
      46       0.00201410      -6.02432987       1.99583916       0.00127900      -0.00302000       0.00534300 
      46       2.01073164      -4.01661652       6.06948825       0.00044300       0.00013500      -0.00108700 
      46      -2.00648639      -4.01572062       6.06871484       0.00029000      -0.00088900      -0.00076900 
      46       0.00167479      -2.00794090       6.06916812      -0.00042400      -0.00095500      -0.00060800 
      46      -4.01554325      -2.00704500       6.06839471      -0.00041900      -0.00002100      -0.00023100 
      46       0.00257046      -6.02439624       6.06903498      -0.00007900      -0.00056600       0.00055000 
      47       0.00099903       0.00031202       4.03210390       0.00014300      -0.00061700      -0.00027300 
      47      -2.00626648      -6.02392303       4.03151749       0.00000400       0.00072800       0.00020200 
      47       0.00189470      -4.01614331       4.03197076       0.00060100      -0.00010600       0.00017500 
      47      -4.01532334      -4.01524741       4.03119735       0.00066600       0.00028200      -0.00026600 
      47      -2.00716215      -2.00746770       4.03165063       0.00103000      -0.00053500      -0.00067700 
      47      -2.00584756      -6.02410326       8.08805298      -0.00024900       0.00000600       0.00199800 
      47       0.00231363      -4.01632354       8.08850625      -0.00088400      -0.00084300       0.00175100 
      47       2.01047481      -2.00854382       8.08895953      -0.00075100       0.00013800       0.00196200 
      47      -2.00674323      -2.00764792       8.08818612      -0.00032100      -0.00013200       0.00206500 
      47       0.00141795       0.00013180       8.08863939      -0.00066800       0.00094700       0.00128700 
      47       2.01139565      -4.01682624      10.22776180       0.00266500       0.00174200      -0.00625800 
      47      -2.00582238      -4.01593034      10.22698839       0.00236100       0.00159900       0.00039700 
      47       0.00233880      -2.00815062      10.22744166      -0.00037700      -0.00776900       0.00640100 
      47       2.01049998      -0.00037090      10.22789494      -0.00038700       0.00079700      -0.00253100 
      47      -2.00671806       0.00052500      10.22712153      -0.00041900      -0.00806700      -0.01296300 
30
Lattice="2.009952531310006 -6.0251309523268315 0.0001869926500343 2.0104966127432706 2.0081294895407433 12.190015469600754 -6.025379219508239 -2.0068838171128855 -0.0012266870765149" Properties=Z:I:1:pos:R:3:vasp_force:R:3 uuid=ddc05350-dc16-430f-988f-e4f778a89bb6 vasp_virial="-0.06317071711607125 0.115575651311273 -0.16258848727615327 0.115575651311273 -0.02615029540157613 0.000619922505705713 -0.16258848727615327 0.000619922505705713 0.038898602771385696" vasp_energy=-120.24019677 pbc="T T T"
      46      -2.00763241      -6.02452138       0.05979397       0.01263100       0.00273700      -0.00634300 
      46       0.00052877      -4.01674166       0.06024725      -0.01117500       0.00332000      -0.01138500 
      46      -4.01668927      -4.01584576       0.05947384       0.00279600       0.01308400      -0.00690000 
      46      -2.00852809      -2.00806605       0.05992711       0.00287000       0.00285600      -0.00111200 
      46      -0.00036690      -0.00028633       0.06038039       0.00180800      -0.01055500      -0.01225400 
      46      -4.01681017      -6.02503831       1.98532685       0.00821100       0.00689100       0.07315000 
      46      -2.00704275      -4.01565425       1.99551902      -0.00501600      -0.00529300       0.00276600 
      46       0.00111843      -2.00787454       1.99597230      -0.00158700      -0.00382800       0.00250400 
      46      -4.01609961      -2.00697864       1.99519889      -0.00237800      -0.00202700       0.00198500 
      46       0.00201410      -6.02432987       1.99583916      -0.00417700      -0.00578900       0.00286900 
      46       2.01073164      -4.01661652       6.06948825       0.00043300       0.00010800      -0.00157200 
      46      -2.00648639      -4.01572062       6.06871484       0.00029900      -0.00103800      -0.00083400 
      46       0.00167479      -2.00794090       6.06916812      -0.00017300      -0.00104400      -0.00067900 
      46      -4.01554325      -2.00704500       6.06839471      -0.00056400       0.00016400      -0.00033100 
      46       0.00257046      -6.02439624       6.06903498      -0.00009700      -0.00043600       0.00048300 
      47       0.00099903       0.00031202       4.03210390       0.00025700       0.00681400      -0.00724200 
      47      -2.00626648      -6.02392303       4.03151749      -0.01011000       0.00060100      -0.00973600 
      47       0.00189470      -4.01614331       4.03197076       0.00806400      -0.00009000      -0.00652600 
      47      -4.01532334      -4.01524741       4.03119735       0.00084200      -0.00959300      -0.01053200 
      47      -2.00716215      -2.00746770       4.03165063       0.00104900      -0.00032300      -0.00061300 
      47      -2.00584756      -6.02410326       8.08805298      -0.00016700       0.00002000       0.00202400 
      47       0.00231363      -4.01632354       8.08850625      -0.00096700      -0.00095300       0.00170200 
      47       2.01047481      -2.00854382       8.08895953      -0.00065600       0.00014900       0.00180900 
      47      -2.00674323      -2.00764792       8.08818612      -0.00030800      -0.00018800       0.00185600 
      47       0.00141795       0.00013180       8.08863939      -0.00065900       0.00089800       0.00149400 
      47       2.01139565      -4.01682624      10.22776180       0.00006500       0.00069400      -0.00316500 
      47      -2.00582238      -4.01593034      10.22698839      -0.00030000       0.00065200      -0.00340700 
      47       0.00233880      -2.00815062      10.22744166      -0.00038000       0.00060400      -0.00397100 
      47       2.01049998      -0.00037090      10.22789494      -0.00054200       0.00085600      -0.00297300 
      47      -2.00671806       0.00052500      10.22712153      -0.00006700       0.00070800      -0.00306500 
30
Lattice="2.009952531310006 -6.0251309523268315 0.0001869926500343 2.0104966127432706 2.0081294895407433 12.190015469600754 -6.025379219508239 -2.0068838171128855 -0.0012266870765149" Properties=Z:I:1:pos:R:3:vasp_force:R:3 uuid=bae13b06-5c6a-4782-a666-e9209395e7e6 vasp_virial="-0.07714966272740553 0.11598074918628862 -0.15388502080990873 0.11598074918628862 -0.04052820104133487 0.002402966940433531 -0.15388502080990873 0.002402966940433531 0.025208135949835276" vasp_energy=-120.2402203 pbc="T T T"
      46      -2.00763241      -6.02452138       0.05979397      -0.00741200       0.00248100       0.01283300 
      46       0.00052877      -4.01674166       0.06024725      -0.00763600       0.00322500      -0.01110900 
      46      -4.01668927      -4.01584576       0.05947384       0.00304900      -0.00023100       0.00485400 
      46      -2.00852809      -2.00806605       0.05992711       0.00179900       0.00265000      -0.00013000 
      46      -0.00036690      -0.00028633       0.06038039       0.00205900      -0.00011000      -0.00409600 
      46      -4.02469151      -6.02659402       1.99506382       0.06393000       0.01781400       0.00102400 
      46      -2.00704275      -4.01565425       1.99551902      -0.01282200      -0.01210700       0.00165300 
      46       0.00111843      -2.00787454       1.99597230      -0.00643000       0.00114800       0.00122600 
      46      -4.01609961      -2.00697864       1.99519889      -0.00702000       0.00235900       0.00070400 
      46       0.00201410      -6.02432987       1.99583916      -0.01275100      -0.01332300       0.00145600 
      46       2.01073164      -4.01661652       6.06948825       0.00066800       0.00013400      -0.00119400 
      46      -2.00648639      -4.01572062       6.06871484       0.00023300      -0.00084000      -0.00079300 
      46       0.00167479      -2.00794090       6.06916812      -0.00039400      -0.00104600      -0.00047700 
      46      -4.01554325      -2.00704500       6.06839471      -0.00039100       0.00005600      -0.00035600 
      46       0.00257046      -6.02439624       6.06903498      -0.00013600      -0.00051800       0.00062300 
      47       0.00099903       0.00031202       4.03210390       0.00096700      -0.00337800       0.00280800 
      47      -2.00626648      -6.02392303       4.03151749      -0.00794700       0.00066700      -0.00910400 
      47       0.00189470      -4.01614331       4.03197076      -0.00771900       0.00005900       0.01003800 
      47      -4.01532334      -4.01524741       4.03119735       0.00155100      -0.00208900      -0.00374900 
      47      -2.00716215      -2.00746770       4.03165063       0.00078300      -0.00038500      -0.00054400 
      47      -2.00584756      -6.02410326       8.08805298      -0.00025700      -0.00000100       0.00216900 
      47       0.00231363      -4.01632354       8.08850625      -0.00093300      -0.00100900       0.00174800 
      47       2.01047481      -2.00854382       8.08895953      -0.00078500       0.00013000       0.00190600 
      47      -2.00674323      -2.00764792       8.08818612      -0.00029200      -0.00011500       0.00169900 
      47       0.00141795       0.00013180       8.08863939      -0.00069000       0.00091900       0.00147800 
      47       2.01139565      -4.01682624      10.22776180      -0.00039000       0.00073900      -0.00266500 
      47      -2.00582238      -4.01593034      10.22698839      -0.00007600       0.00071800      -0.00306900 
      47       0.00233880      -2.00815062      10.22744166      -0.00048300       0.00055200      -0.00374900 
      47       2.01049998      -0.00037090      10.22789494      -0.00044200       0.00100600      -0.00266800 
      47      -2.00671806       0.00052500      10.22712153      -0.00003300       0.00049400      -0.00251400 
30
Lattice="2.009952531310006 -6.0251309523268315 0.0001869926500343 2.0104966127432706 2.0081294895407433 12.190015469600754 -6.025379219508239 -2.0068838171128855 -0.0012266870765149" Properties=Z:I:1:pos:R:3:vasp_force:R:3 uuid=980c9a11-33bf-4f42-a8f1-60e1257a1b7d vasp_virial="-0.07704225041206048 0.11629071043914146 -0.17629122979088596 0.11629071043914146 -0.03975176344755495 -0.0052969616081587146 -0.17629122979088596 -0.0052969616081587146 0.026355913262379512" vasp_energy=-120.24015594 pbc="T T T"
      46      -2.00763241      -6.02452138       0.05979397       0.01254500       0.00279600      -0.01004500 
      46       0.00052877      -4.01674166       0.06024725       0.01214000       0.00354700       0.01148900 
      46      -4.01668927      -4.01584576       0.05947384       0.00223800       0.00585600      -0.00268200 
      46      -2.00852809      -2.00806605       0.05992711       0.00437400       0.00347400      -0.00008400 
      46      -0.00036690      -0.00028633       0.06038039       0.00136300       0.00610000       0.00338600 
      46      -4.00571636      -6.02027393       1.99506768      -0.06794200      -0.02619800       0.00148800 
      46      -2.00704275      -4.01565425       1.99551902       0.00877600       0.00708900       0.00128000 
      46       0.00111843      -2.00787454       1.99597230       0.00292000      -0.00781700       0.00115500 
      46      -4.01609961      -2.00697864       1.99519889       0.00232900      -0.00660500       0.00074400 
      46       0.00201410      -6.02432987       1.99583916       0.00881700       0.00595500       0.00179800 
      46       2.01073164      -4.01661652       6.06948825       0.00006500       0.00001300      -0.00119300 
      46      -2.00648639      -4.01572062       6.06871484       0.00033400      -0.00094100      -0.00064900 
      46       0.00167479      -2.00794090       6.06916812      -0.00048500      -0.00105100      -0.00077400 
      46      -4.01554325      -2.00704500       6.06839471      -0.00043600       0.00017100      -0.00015100 
      46       0.00257046      -6.02439624       6.06903498      -0.00001400      -0.00058100       0.00053300 
      47       0.00099903       0.00031202       4.03210390      -0.00085900       0.00190200      -0.00366700 
      47      -2.00626648      -6.02392303       4.03151749       0.00820200       0.00011900       0.00979100 
      47       0.00189470      -4.01614331       4.03197076       0.00846100      -0.00049200      -0.00901200 
      47      -4.01532334      -4.01524741       4.03119735      -0.00018900       0.00329000       0.00270200 
      47      -2.00716215      -2.00746770       4.03165063       0.00140800      -0.00012000      -0.00042700 
      47      -2.00584756      -6.02410326       8.08805298      -0.00021700       0.00003700       0.00196900 
      47       0.00231363      -4.01632354       8.08850625      -0.00094400      -0.00106800       0.00170300 
      47       2.01047481      -2.00854382       8.08895953      -0.00071200       0.00020900       0.00180800 
      47      -2.00674323      -2.00764792       8.08818612      -0.00029700      -0.00016300       0.00190600 
      47       0.00141795       0.00013180       8.08863939      -0.00064100       0.00093100       0.00163700 
      47       2.01139565      -4.01682624      10.22776180       0.00020800       0.00071800      -0.00310500 
      47      -2.00582238      -4.01593034      10.22698839      -0.00071200       0.00050700      -0.00300300 
      47       0.00233880      -2.00815062      10.22744166       0.00019200       0.00055800      -0.00329200 
      47       2.01049998      -0.00037090      10.22789494      -0.00062700       0.00117600      -0.00239900 
      47      -2.00671806       0.00052500      10.22712153      -0.00029900       0.00058500      -0.00290600 
30
Lattice="2.009952531310006 -6.0251309523268315 0.0001869926500343 2.0104966127432706 2.0081294895407433 12.190015469600754 -6.025379219508239 -2.0068838171128855 -0.0012266870765149" Properties=Z:I:1:pos:R:3:vasp_force:R:3 uuid=7e116b2e-9fd1-4bfc-ab5e-03f6a19769b8 vasp_virial="-0.07687959747739512 0.11471328386521704 -0.16480731881885244 0.11471328386521704 -0.040285756100984615 -0.0031855423808046035 -0.16480731881885244 -0.0031855423808046035 0.025100723634490226" vasp_energy=-120.24021335 pbc="T T T"
      46      -2.00763241      -6.02452138       0.05979397       0.00253500       0.00271300       0.00163000 
      46       0.00052877      -4.01674166       0.06024725       0.00240200       0.00335500       0.00032300 
      46      -4.01668927      -4.01584576       0.05947384       0.00268300       0.00270200       0.00101500 
      46      -2.00852809      -2.00806605       0.05992711       0.00297100       0.00310000      -0.00013600 
      46      -0.00036690      -0.00028633       0.06038039       0.00172600       0.00297600      -0.00037600 
      46      -4.01520393      -6.02343397       1.99506575      -0.00290900      -0.00422400       0.00126200 
      46      -2.00704275      -4.01565425       1.99551902      -0.00222000      -0.00271600       0.00155300 
      46       0.00111843      -2.00787454       1.99597230      -0.00176500      -0.00344400       0.00127000 
      46      -4.01609961      -2.00697864       1.99519889      -0.00237800      -0.00208000       0.00062100 
      46       0.00201410      -6.02432987       1.99583916      -0.00166600      -0.00338800       0.00144100 
      46       2.01389616      -4.02610261       6.06948855      -0.01968000       0.06256000      -0.00045800 
      46      -2.00648639      -4.01572062       6.06871484      -0.00453200      -0.00592900      -0.00090700 
      46       0.00167479      -2.00794090       6.06916812       0.00960900      -0.01213200      -0.00073800 
      46      -4.01554325      -2.00704500       6.06839471       0.01015600      -0.01144600      -0.00017700 
      46       0.00257046      -6.02439624       6.06903498      -0.00505000      -0.00565500       0.00068800 
      47       0.00099903       0.00031202       4.03210390      -0.00020200      -0.00881100      -0.00962900 
      47      -2.00626648      -6.02392303       4.03151749       0.00257500       0.00122900      -0.00290000 
      47       0.00189470      -4.01614331       4.03197076       0.00301100       0.00055200       0.00335400 
      47      -4.01532334      -4.01524741       4.03119735       0.00046600      -0.00724600       0.00827900 
      47      -2.00716215      -2.00746770       4.03165063       0.00132900      -0.00038700      -0.00052500 
      47      -2.00584756      -6.02410326       8.08805298       0.00242700       0.00097400       0.00530700 
      47       0.00231363      -4.01632354       8.08850625       0.00173100      -0.00013000      -0.00153800 
      47       2.01047481      -2.00854382       8.08895953      -0.00094700      -0.00820400      -0.00766400 
      47      -2.00674323      -2.00764792       8.08818612      -0.00003300      -0.00032700       0.00177000 
      47       0.00141795       0.00013180       8.08863939      -0.00091300      -0.00767000       0.01134500 
      47       2.01139565      -4.01682624      10.22776180      -0.00010600       0.00085600      -0.00292300 
      47      -2.00582238      -4.01593034      10.22698839      -0.00039600       0.00059500      -0.00322600 
      47       0.00233880      -2.00815062      10.22744166      -0.00014000       0.00058200      -0.00376300 
      47       2.01049998      -0.00037090      10.22789494      -0.00052900       0.00109800      -0.00230700 
      47      -2.00671806       0.00052500      10.22712153      -0.00015400       0.00049600      -0.00259100 
30
Lattice="2.009952531310006 -6.0251309523268315 0.0001869926500343 2.0104966127432706 2.0081294895407433 12.190015469600754 -6.025379219508239 -2.0068838171128855 -0.0012266870765149" Properties=Z:I:1:pos:R:3:vasp_force:R:3 uuid=dea4ec8a-2f10-438c-91bc-470e94823054 vasp_virial="-0.0769839408694446 0.1149894869618186 -0.1657832364268446 0.1149894869618186 -0.0406264065867932 -0.00032223694603514773 -0.1657832364268446 -0.00032223694603514773 0.02599684923679749" vasp_energy=-120.24022023 pbc="T T T"
      46      -2.00763241      -6.02452138       0.05979397       0.00241000       0.00256800       0.00154100 
      46       0.00052877      -4.01674166       0.06024725       0.00239700       0.00334600       0.00043500 
      46      -4.01668927      -4.01584576       0.05947384       0.00269600       0.00293000       0.00114100 
      46      -2.00852809      -2.00806605       0.05992711       0.00325800       0.00299000      -0.00009300 
      46      -0.00036690      -0.00028633       0.06038039       0.00171600       0.00294200      -0.00035100 
      46      -4.01520393      -6.02343397       1.99506575      -0.00262900      -0.00474000       0.00130500 
      46      -2.00704275      -4.01565425       1.99551902      -0.00224700      -0.00285800       0.00136800 
      46       0.00111843      -2.00787454       1.99597230      -0.00161300      -0.00342400       0.00108200 
      46      -4.01609961      -2.00697864       1.99519889      -0.00233800      -0.00203300       0.00079800 
      46       0.00201410      -6.02432987       1.99583916      -0.00173600      -0.00349100       0.00180000 
      46       2.00756713      -4.00713043       6.06948796       0.02040900      -0.06089600      -0.00172400 
      46      -2.00648639      -4.01572062       6.06871484       0.00532400       0.00418400      -0.00055500 
      46       0.00167479      -2.00794090       6.06916812      -0.01097200       0.01047100      -0.00052600 
      46      -4.01554325      -2.00704500       6.06839471      -0.01038800       0.01117000      -0.00034100 
      46       0.00257046      -6.02439624       6.06903498       0.00478600       0.00445200       0.00044800 
      47       0.00099903       0.00031202       4.03210390       0.00030700       0.00708500       0.00842300 
      47      -2.00626648      -6.02392303       4.03151749      -0.00248000      -0.00041600       0.00322100 
      47       0.00189470      -4.01614331       4.03197076      -0.00199900      -0.00107900      -0.00269400 
      47      -4.01532334      -4.01524741       4.03119735       0.00100700       0.00862700      -0.00967500 
      47      -2.00716215      -2.00746770       4.03165063       0.00091500      -0.00015000      -0.00047200 
      47      -2.00584756      -6.02410326       8.08805298      -0.00284600      -0.00093800      -0.00116000 
      47       0.00231363      -4.01632354       8.08850625      -0.00355900      -0.00201300       0.00499400 
      47       2.01047481      -2.00854382       8.08895953      -0.00046300       0.00874200       0.01170500 
      47      -2.00674323      -2.00764792       8.08818612      -0.00050000       0.00001500       0.00182600 
      47       0.00141795       0.00013180       8.08863939      -0.00039200       0.00925700      -0.00790400 
      47       2.01139565      -4.01682624      10.22776180      -0.00002200       0.00057100      -0.00285700 
      47      -2.00582238      -4.01593034      10.22698839      -0.00033800       0.00059600      -0.00285000 
      47       0.00233880      -2.00815062      10.22744166      -0.00009600       0.00049200      -0.00327900 
      47       2.01049998      -0.00037090      10.22789494      -0.00048300       0.00105000      -0.00276700 
      47      -2.00671806       0.00052500      10.22712153      -0.00012300       0.00055200      -0.00283800 
30
Lattice="2.009952531310006 -6.0251309523268315 0.0001869926500343 2.0104966127432706 2.0081294895407433 12.190015469600754 -6.025379219508239 -2.0068838171128855 -0.0012266870765149" Properties=Z:I:1:pos:R:3:vasp_force:R:3 uuid=d842f969-ff1a-4ab2-81a9-8bb2b3711135 vasp_virial="-0.07519168966483006 0.11534548206410507 -0.16495769606033553 0.11534548206410507 -0.038174336873630504 -0.001270534244367154 -0.16495769606033553 -0.001270534244367154 0.027764549055047445" vasp_energy=-120.24017969 pbc="T T T"
      46      -2.00763241      -6.02452138       0.05979397       0.00245300       0.00254500       0.00160200 
      46       0.00052877      -4.01674166       0.06024725       0.00241300       0.00342000       0.00047300 
      46      -4.01668927      -4.01584576       0.05947384       0.00274400       0.00286900       0.00107800 
      46      -2.00852809      -2.00806605       0.05992711       0.00308600       0.00303700      -0.00025100 
      46      -0.00036690      -0.00028633       0.06038039       0.00165400       0.00301700      -0.00028700 
      46      -4.01520393      -6.02343397       1.99506575      -0.00282800      -0.00451400       0.00164700 
      46      -2.00704275      -4.01565425       1.99551902      -0.00227200      -0.00283100       0.00153800 
      46       0.00111843      -2.00787454       1.99597230      -0.00157100      -0.00348200       0.00124400 
      46      -4.01609961      -2.00697864       1.99519889      -0.00253100      -0.00204500       0.00073100 
      46       0.00201410      -6.02432987       1.99583916      -0.00167400      -0.00331900       0.00171400 
      46       2.01233788      -4.01501218       6.07922715      -0.00969400      -0.01005800      -0.06900700 
      46      -2.00648639      -4.01572062       6.06871484       0.00306000       0.00156600      -0.00120800 
      46       0.00167479      -2.00794090       6.06916812      -0.00025600      -0.00094500      -0.00122400 
      46      -4.01554325      -2.00704500       6.06839471      -0.00060200       0.00031400      -0.00080900 
      46       0.00257046      -6.02439624       6.06903498       0.00277000       0.00224100       0.00004800 
      47       0.00099903       0.00031202       4.03210390      -0.00008400       0.00928800       0.00920600 
      47      -2.00626648      -6.02392303       4.03151749      -0.00741700       0.00024700       0.00685100 
      47       0.00189470      -4.01614331       4.03197076       0.01049800      -0.00036300       0.00992400 
      47      -4.01532334      -4.01524741       4.03119735       0.00058900      -0.00686000       0.00614200 
      47      -2.00716215      -2.00746770       4.03165063       0.00112900      -0.00020300      -0.00036600 
      47      -2.00584756      -6.02410326       8.08805298       0.01082900      -0.00008200       0.01278300 
      47       0.00231363      -4.01632354       8.08850625      -0.00902100      -0.00125700       0.00909100 
      47       2.01047481      -2.00854382       8.08895953      -0.00095000       0.01120500       0.01262900 
      47      -2.00674323      -2.00764792       8.08818612      -0.00026800      -0.00007900       0.00186000 
      47       0.00141795       0.00013180       8.08863939      -0.00077800      -0.00720000       0.00891800 
      47       2.01139565      -4.01682624      10.22776180      -0.00010700       0.00071000      -0.00263000 
      47      -2.00582238      -4.01593034      10.22698839      -0.00028900       0.00070400      -0.00297600 
      47       0.00233880      -2.00815062      10.22744166      -0.00021300       0.00063500      -0.00349800 
      47       2.01049998      -0.00037090      10.22789494      -0.00041500       0.00098100      -0.00249500 
      47      -2.00671806       0.00052500      10.22712153      -0.00025400       0.00045800      -0.00272900 
30
Lattice="2.009952531310006 -6.0251309523268315 0.0001869926500343 2.0104966127432706 2.0081294895407433 12.190015469600754 -6.025379219508239 -2.0068838171128855 -0.0012266870765149" Properties=Z:I:1:pos:R:3:vasp_force:R:3 uuid=c36a7fe3-2896-4d52-8de7-2100346f3f02 vasp_virial="-0.07940225242635598 0.11563702977718446 -0.16465080373077823 0.11563702977718446 -0.04287285843915251 -0.001675632119382768 -0.16465080373077823 -0.001675632119382768 0.021356637213891364" vasp_energy=-120.2402016 pbc="T T T"
      46      -2.00763241      -6.02452138       0.05979397       0.00249000       0.00273800       0.00155900 
      46       0.00052877      -4.01674166       0.06024725       0.00238600       0.00328000       0.00027800 
      46      -4.01668927      -4.01584576       0.05947384       0.00263200       0.00276400       0.00106600 
      46      -2.00852809      -2.00806605       0.05992711       0.00314400       0.00305700       0.00001600 
      46      -0.00036690      -0.00028633       0.06038039       0.00179000       0.00290300      -0.00044900 
      46      -4.01520393      -6.02343397       1.99506575      -0.00270800      -0.00444800       0.00090800 
      46      -2.00704275      -4.01565425       1.99551902      -0.00219900      -0.00274200       0.00136800 
      46       0.00111843      -2.00787454       1.99597230      -0.00180700      -0.00338800       0.00109600 
      46      -4.01609961      -2.00697864       1.99519889      -0.00218400      -0.00206400       0.00067800 
      46       0.00201410      -6.02432987       1.99583916      -0.00172500      -0.00355700       0.00151600 
      46       2.00912541      -4.01822086       6.05974936       0.01041900       0.01165600       0.06722200 
      46      -2.00648639      -4.01572062       6.06871484      -0.00242600      -0.00337800      -0.00028900 
      46       0.00167479      -2.00794090       6.06916812      -0.00053200      -0.00120400      -0.00005400 
      46      -4.01554325      -2.00704500       6.06839471      -0.00020500      -0.00009600       0.00027500 
      46       0.00257046      -6.02439624       6.06903498      -0.00287600      -0.00337100       0.00110400 
      47       0.00099903       0.00031202       4.03210390       0.00023300      -0.01124100      -0.01047000 
      47      -2.00626648      -6.02392303       4.03151749       0.00774200       0.00055100      -0.00668100 
      47       0.00189470      -4.01614331       4.03197076      -0.00992700      -0.00011700      -0.00962700 
      47      -4.01532334      -4.01524741       4.03119735       0.00087000       0.00826300      -0.00738200 
      47      -2.00716215      -2.00746770       4.03165063       0.00111300      -0.00033400      -0.00064700 
      47      -2.00584756      -6.02410326       8.08805298      -0.01078600       0.00007200      -0.00829300 