  30
   1   1
     7.280462860487450    -0.028994301275360    -0.097656607505472
    -0.044363558936694     7.218818429689410     0.151844257077577
    -0.086359012124389     0.155493349235332     7.233285761416427
   1   2
    -0.941785018740999    -0.949980566662753    -0.064927871123385
    -1.107166118863793    -0.934326403280102     0.067288027899927
    -0.071783445517284     0.061795312365613    -0.001958118151888
   1   3
    -0.827657618330610    -0.079540146756819    -1.013628928992080
    -0.030841402041298    -0.838762639348181     0.901633458354649
    -0.889486898672360     1.024079992263767    -1.737552005528315
   1   4
    -0.826839033295198    -0.031209688936478    -0.889271532939365
    -0.079356898578247    -0.838726112604683     1.024116011884741
    -1.014211883411384     0.901474230784811    -1.737792441528505
   1   5
    -0.941421155853754    -1.107478704226049    -0.070943220152771
    -0.949652126834982    -0.934832506901087     0.061867103642941
    -0.065714618874123     0.066819452258097    -0.001999687463104
   1   6
     0.069035868295040    -0.004948705693793     0.047904109401783
    -0.004487446629318     0.071497079098055    -0.049950339511102
    -0.016113868897642     0.014178613714900    -0.045480377914681
   1   7
     0.002365769192551    -0.070626273419886    -0.055436785658445
     0.010636394156636     0.104576223700704     0.025558872239870
    -0.018362806638328     0.054864960421283     0.058795271715983
   1   8
    -0.084535295465427     0.034008665021387     0.009797212982493
     0.051129474571458    -0.020882370993053    -0.030705304435510
     0.045372157738502    -0.048452479777764    -0.002806911105933
   1   9
    -0.023779816606228     0.050551594516479     0.028777203810494
     0.034664128186229    -0.080895903759108    -0.011910436968908
     0.045649680566104    -0.047569922134212    -0.002558164066175
   1  10
     0.101693198745592     0.010081986764752    -0.028842903715600
    -0.070811193649348     0.005691894848439     0.053131110646445
    -0.059398756632527     0.014927700060001     0.059165615630980
   1  11
     0.099472006353131    -0.000539214735415    -0.037765420102134
    -0.009790276754795    -1.079896020658539    -1.149946561142109
    -0.007200926203872    -1.187331152512420    -1.017953107059791
   1  12
    -0.061350878014428    -0.023206917815836     0.054739169175771
    -0.064888968323933    -0.012414661644342    -0.029163021822211
    -0.017743273505100     0.012842683055754    -0.025560810292292
   1  13
    -1.016864935501462     1.232131127509499    -0.072421679082963
     1.232224552777744    -1.012176767336514     0.069408939523566
    -0.023458692952275     0.021376974999032     0.002774439135940
   1  14
    -0.015817994818045    -0.066192302595335     0.025802912341679
    -0.022749702189011    -0.057990316976112    -0.056156340594613
    -0.016702335836348     0.014707786535156    -0.024677053814086
   1  15
    -1.080372163977972    -0.010541854359569     1.147547664037077
    -0.000360400992646     0.101154462113382     0.033217406714613
     1.183485685172870     0.002868388285822    -1.013372130126692
   1  16
     0.006952987235636     0.013007954661388     0.018516711646749
     0.013661525899661    -0.001065225527121    -0.008730663972934
     0.018697413748911    -0.009128944350600    -0.002817516800519
   1  17
     0.004679803615065    -0.003308243938229    -0.019176132134058
    -0.002822768576528    -0.013619939356872     0.011099562817079
    -0.019844608169723     0.010839642637919     0.023672773566303
   1  18
     0.024965373743871    -0.033191022762863    -0.009026666120055
    -0.032183599073903     0.027248857984412     0.005742775348978
    -0.008267616763030     0.005389651359398    -0.030959606017167
   1  19
    -0.016231510846331    -0.003584232513339    -0.014308290869250
    -0.002521459985251     0.007209264408749     0.017390155953880
    -0.014147341414504     0.017002712648369     0.023477912447255
   1  20
    -0.003538279782549     0.013135456888169     0.006058437076792
     0.014193591514106     0.009172067578020    -0.022452066737939
     0.005831144168071    -0.022096416747257    -0.002995376121805
   1  21
    -0.019835213579867     0.009000857926596     0.007735400688012
     0.023887774106399    -0.003589366813255     0.003936082206173
     0.019062506929418    -0.000425607511665    -0.008123667745959
   1  22
     0.004655126607042    -0.001483787196230    -0.004359181795095
    -0.005711402443008     0.014739699987865     0.005244383242021
    -0.007843130449221     0.009728710558540     0.014636189233340
   1  23
     0.005453679246662    -0.009167923328188     0.015888880919174
    -0.008534311576130     0.008399327810898    -0.018532896041780
     0.003378203854038    -0.006573132962589    -0.014048767092378
   1  24
     0.011892128494219    -0.006257654394784    -0.007912952830200
    -0.001116160333103     0.007194052972555     0.001935049549999
    -0.012727257023175     0.004875032798051     0.014434414191271
   1  25
    -0.006603789594274     0.023399359137568    -0.006481424066911
     0.009526763134819    -0.016997684951659    -0.010190016185891
    -0.002600514139895    -0.022124652350699    -0.008337026617647
   1  26
    -0.871793153994004     1.013065523080019     0.006522735217772
     1.013510620931544    -0.866297034383465    -0.009189487445832
     0.010224344670387    -0.013272611287634     0.023702354180999
   1  27
    -0.084383142390357     0.014334179514939     0.024630176404348
    -0.016593522290732     0.017589858757509    -0.007682323432724
     0.000589653403626    -0.012904802095928     0.013211348758472
   1  28
     0.094019627268060     0.008652123635304     0.002700978393490
     0.026139408129453    -0.896360770147962    -0.996322642482743
     0.016743611712195    -0.999689663622626    -0.902948551643313
   1  29
    -0.898039350911605     0.025873155024050     0.990558919724840
     0.009026251956719     0.096178472284399    -0.005153569476266
     0.993345935969752    -0.020048577551191    -0.898927432291449
   1  30
     0.015199141823992    -0.016990059690800     0.004978422828529
     0.015352362232108    -0.080635343307009    -0.027327612313242
     0.009587803541525    -0.003648336318261     0.013712959885874
   2   1
    -0.941421155853755    -1.107478704226049    -0.070943220152771
    -0.949652126834983    -0.934832506901087     0.061867103642941
    -0.065714618874123     0.066819452258097    -0.001999687463104
   2   2
     7.280462860487450    -0.028994301275359    -0.097656607505472
    -0.044363558936693     7.218818429689410     0.151844257077577
    -0.086359012124389     0.155493349235331     7.233285761416427
   2   3
    -0.941785018741000    -0.949980566662753    -0.064927871123385
    -1.107166118863794    -0.934326403280102     0.067288027899927
    -0.071783445517284     0.061795312365613    -0.001958118151888
   2   4
    -0.827657618330610    -0.079540146756819    -1.013628928992080
    -0.030841402041298    -0.838762639348181     0.901633458354649
    -0.889486898672360     1.024079992263767    -1.737552005528315
   2   5
    -0.826839033295198    -0.031209688936478    -0.889271532939364
    -0.079356898578247    -0.838726112604683     1.024116011884741
    -1.014211883411384     0.901474230784811    -1.737792441528505
   2   6
     0.101693198745592     0.010081986764752    -0.028842903715600
    -0.070811193649348     0.005691894848439     0.053131110646445
    -0.059398756632527     0.014927700060001     0.059165615630980
   2   7
     0.069035868295040    -0.004948705693793     0.047904109401783
    -0.004487446629318     0.071497079098055    -0.049950339511102
    -0.016113868897642     0.014178613714900    -0.045480377914681
   2   8
     0.002365769192551    -0.070626273419886    -0.055436785658445
     0.010636394156636     0.104576223700704     0.025558872239870
    -0.018362806638328     0.054864960421283     0.058795271715983
   2   9
    -0.084535295465427     0.034008665021387     0.009797212982493
     0.051129474571458    -0.020882370993053    -0.030705304435510
     0.045372157738502    -0.048452479777764    -0.002806911105933
   2  10
    -0.023779816606228     0.050551594516479     0.028777203810494
     0.034664128186229    -0.080895903759108    -0.011910436968908
     0.045649680566104    -0.047569922134212    -0.002558164066175
   2  11
    -1.080372163977972    -0.010541854359569     1.147547664037077
    -0.000360400992646     0.101154462113382     0.033217406714613
     1.183485685172870     0.002868388285822    -1.013372130126692
   2  12
     0.099472006353131    -0.000539214735415    -0.037765420102135
    -0.009790276754795    -1.079896020658539    -1.149946561142109
    -0.007200926203872    -1.187331152512420    -1.017953107059791
   2  13
    -0.061350878014429    -0.023206917815836     0.054739169175771
    -0.064888968323933    -0.012414661644342    -0.029163021822211
    -0.017743273505100     0.012842683055754    -0.025560810292292
   2  14
    -1.016864935501462     1.232131127509499    -0.072421679082963
     1.232224552777743    -1.012176767336514     0.069408939523566
    -0.023458692952275     0.021376974999032     0.002774439135940
   2  15
    -0.015817994818045    -0.066192302595335     0.025802912341679
    -0.022749702189011    -0.057990316976112    -0.056156340594613
    -0.016702335836348     0.014707786535156    -0.024677053814086
   2  16
    -0.003538279782549     0.013135456888169     0.006058437076792
     0.014193591514106     0.009172067578020    -0.022452066737939
     0.005831144168071    -0.022096416747257    -0.002995376121805
   2  17
     0.006952987235636     0.013007954661388     0.018516711646749
     0.013661525899661    -0.001065225527121    -0.008730663972934
     0.018697413748911    -0.009128944350600    -0.002817516800519
   2  18
     0.004679803615065    -0.003308243938229    -0.019176132134058
    -0.002822768576528    -0.013619939356872     0.011099562817079
    -0.019844608169723     0.010839642637919     0.023672773566303
   2  19
     0.024965373743871    -0.033191022762863    -0.009026666120055
    -0.032183599073903     0.027248857984412     0.005742775348978
    -0.008267616763030     0.005389651359398    -0.030959606017167
   2  20
    -0.016231510846331    -0.003584232513339    -0.014308290869250
    -0.002521459985251     0.007209264408749     0.017390155953880
    -0.014147341414503     0.017002712648369     0.023477912447255
   2  21
    -0.006603789594274     0.023399359137568    -0.006481424066911
     0.009526763134819    -0.016997684951659    -0.010190016185891
    -0.002600514139895    -0.022124652350699    -0.008337026617647
   2  22
    -0.019835213579867     0.009000857926596     0.007735400688012
     0.023887774106399    -0.003589366813255     0.003936082206173
     0.019062506929418    -0.000425607511665    -0.008123667745959
   2  23
     0.004655126607042    -0.001483787196230    -0.004359181795095
    -0.005711402443008     0.014739699987865     0.005244383242021
    -0.007843130449221     0.009728710558540     0.014636189233340
   2  24
     0.005453679246662    -0.009167923328188     0.015888880919174
    -0.008534311576130     0.008399327810898    -0.018532896041780
     0.003378203854038    -0.006573132962589    -0.014048767092378
   2  25
     0.011892128494219    -0.006257654394784    -0.007912952830200
    -0.001116160333103     0.007194052972555     0.001935049549999
    -0.012727257023175     0.004875032798051     0.014434414191271
   2  26
     0.015199141823992    -0.016990059690800     0.004978422828529
     0.015352362232108    -0.080635343307009    -0.027327612313242
     0.009587803541525    -0.003648336318261     0.013712959885874
   2  27
    -0.871793153994003     1.013065523080019     0.006522735217772
     1.013510620931544    -0.866297034383465    -0.009189487445832
     0.010224344670387    -0.013272611287634     0.023702354180999
   2  28
    -0.084383142390357     0.014334179514939     0.024630176404348
    -0.016593522290732     0.017589858757509    -0.007682323432724
     0.000589653403626    -0.012904802095928     0.013211348758472
   2  29
     0.094019627268060     0.008652123635304     0.002700978393490
     0.026139408129452    -0.896360770147962    -0.996322642482743
     0.016743611712195    -0.999689663622626    -0.902948551643313
   2  30
    -0.898039350911605     0.025873155024050     0.990558919724840
     0.009026251956719     0.096178472284399    -0.005153569476266
     0.993345935969752    -0.020048577551191    -0.898927432291449
   3   1
    -0.826839033295198    -0.031209688936478    -0.889271532939364
    -0.079356898578247    -0.838726112604683     1.024116011884741
    -1.014211883411384     0.901474230784811    -1.737792441528505
   3   2
    -0.941421155853755    -1.107478704226049    -0.070943220152771
    -0.949652126834983    -0.934832506901087     0.061867103642941
    -0.065714618874123     0.066819452258097    -0.001999687463104
   3   3
     7.280462860487450    -0.028994301275359    -0.097656607505472
    -0.044363558936693     7.218818429689410     0.151844257077577
    -0.086359012124389     0.155493349235331     7.233285761416427
   3   4
    -0.941785018741000    -0.949980566662753    -0.064927871123385
    -1.107166118863794    -0.934326403280102     0.067288027899927
    -0.071783445517284     0.061795312365613    -0.001958118151888
   3   5
    -0.827657618330610    -0.079540146756819    -1.013628928992080
    -0.030841402041298    -0.838762639348181     0.901633458354649
    -0.889486898672360     1.024079992263767    -1.737552005528315
   3   6
    -0.023779816606228     0.050551594516479     0.028777203810494
     0.034664128186229    -0.080895903759108    -0.011910436968908
     0.045649680566104    -0.047569922134212    -0.002558164066175
   3   7
     0.101693198745592     0.010081986764752    -0.028842903715600
    -0.070811193649348     0.005691894848439     0.053131110646445
    -0.059398756632527     0.014927700060001     0.059165615630980
   3   8
     0.069035868295040    -0.004948705693793     0.047904109401783
    -0.004487446629318     0.071497079098055    -0.049950339511102
    -0.016113868897642     0.014178613714900    -0.045480377914681
   3   9
     0.002365769192551    -0.070626273419886    -0.055436785658445
     0.010636394156636     0.104576223700704     0.025558872239870
    -0.018362806638328     0.054864960421283     0.058795271715983
   3  10
    -0.084535295465427     0.034008665021387     0.009797212982493
     0.051129474571458    -0.020882370993053    -0.030705304435510
     0.045372157738502    -0.048452479777764    -0.002806911105933
   3  11
    -0.015817994818045    -0.066192302595335     0.025802912341679
    -0.022749702189011    -0.057990316976112    -0.056156340594613
    -0.016702335836348     0.014707786535156    -0.024677053814086
   3  12
    -1.080372163977972    -0.010541854359569     1.147547664037077
    -0.000360400992646     0.101154462113382     0.033217406714613
     1.183485685172870     0.002868388285822    -1.013372130126692
   3  13
     0.099472006353131    -0.000539214735415    -0.037765420102135
    -0.009790276754795    -1.079896020658539    -1.149946561142109
    -0.007200926203872    -1.187331152512420    -1.017953107059791
   3  14
    -0.061350878014429    -0.023206917815836     0.054739169175771
    -0.064888968323933    -0.012414661644342    -0.029163021822211
    -0.017743273505100     0.012842683055754    -0.025560810292292
   3  15
    -1.016864935501462     1.232131127509499    -0.072421679082963
     1.232224552777743    -1.012176767336514     0.069408939523566
    -0.023458692952275     0.021376974999032     0.002774439135940
   3  16
    -0.016231510846331    -0.003584232513339    -0.014308290869250
    -0.002521459985251     0.007209264408749     0.017390155953880
    -0.014147341414503     0.017002712648369     0.023477912447255
   3  17
    -0.003538279782549     0.013135456888169     0.006058437076792
     0.014193591514106     0.009172067578020    -0.022452066737939
     0.005831144168071    -0.022096416747257    -0.002995376121805
   3  18
     0.006952987235636     0.013007954661388     0.018516711646749
     0.013661525899661    -0.001065225527121    -0.008730663972934
     0.018697413748911    -0.009128944350600    -0.002817516800519
   3  19
     0.004679803615065    -0.003308243938229    -0.019176132134058
    -0.002822768576528    -0.013619939356872     0.011099562817079
    -0.019844608169723     0.010839642637919     0.023672773566303
   3  20
     0.024965373743871    -0.033191022762863    -0.009026666120055
    -0.032183599073903     0.027248857984412     0.005742775348978
    -0.008267616763030     0.005389651359398    -0.030959606017167
   3  21
     0.011892128494219    -0.006257654394784    -0.007912952830200
    -0.001116160333103     0.007194052972555     0.001935049549999
    -0.012727257023175     0.004875032798051     0.014434414191271
   3  22
    -0.006603789594274     0.023399359137568    -0.006481424066911
     0.009526763134819    -0.016997684951659    -0.010190016185891
    -0.002600514139895    -0.022124652350699    -0.008337026617647
   3  23
    -0.019835213579867     0.009000857926596     0.007735400688012
     0.023887774106399    -0.003589366813255     0.003936082206173
     0.019062506929418    -0.000425607511665    -0.008123667745959
   3  24
     0.004655126607042    -0.001483787196230    -0.004359181795095
    -0.005711402443008     0.014739699987865     0.005244383242021
    -0.007843130449221     0.009728710558540     0.014636189233340
   3  25
     0.005453679246662    -0.009167923328188     0.015888880919174
    -0.008534311576130     0.008399327810898    -0.018532896041780
     0.003378203854038    -0.006573132962589    -0.014048767092378
   3  26
    -0.898039350911605     0.025873155024050     0.990558919724840
     0.009026251956719     0.096178472284399    -0.005153569476266
     0.993345935969752    -0.020048577551191    -0.898927432291449
   3  27
     0.015199141823992    -0.016990059690800     0.004978422828529
     0.015352362232108    -0.080635343307009    -0.027327612313242
     0.009587803541525    -0.003648336318261     0.013712959885874
   3  28
    -0.871793153994003     1.013065523080019     0.006522735217772
     1.013510620931544    -0.866297034383465    -0.009189487445832
     0.010224344670387    -0.013272611287634     0.023702354180999
   3  29
    -0.084383142390357     0.014334179514939     0.024630176404348
    -0.016593522290732     0.017589858757509    -0.007682323432724
     0.000589653403626    -0.012904802095928     0.013211348758472
   3  30
     0.094019627268060     0.008652123635304     0.002700978393490
     0.026139408129452    -0.896360770147962    -0.996322642482743
     0.016743611712195    -0.999689663622626    -0.902948551643313
   4   1
    -0.827657618330610    -0.079540146756819    -1.013628928992080
    -0.030841402041298    -0.838762639348181     0.901633458354649
    -0.889486898672360     1.024079992263767    -1.737552005528315
   4   2
    -0.826839033295198    -0.031209688936478    -0.889271532939364
    -0.079356898578247    -0.838726112604683     1.024116011884741
    -1.014211883411384     0.901474230784811    -1.737792441528505
   4   3
    -0.941421155853755    -1.107478704226049    -0.070943220152771
    -0.949652126834983    -0.934832506901087     0.061867103642941
    -0.065714618874123     0.066819452258097    -0.001999687463104
   4   4
     7.280462860487450    -0.028994301275359    -0.097656607505472
    -0.044363558936693     7.218818429689410     0.151844257077577
    -0.086359012124389     0.155493349235331     7.233285761416427
   4   5
    -0.941785018741000    -0.949980566662753    -0.064927871123385
    -1.107166118863794    -0.934326403280102     0.067288027899927
    -0.071783445517284     0.061795312365613    -0.001958118151888
   4   6
    -0.084535295465427     0.034008665021387     0.009797212982493
     0.051129474571458    -0.020882370993053    -0.030705304435510
     0.045372157738502    -0.048452479777764    -0.002806911105933
   4   7
    -0.023779816606228     0.050551594516479     0.028777203810494
     0.034664128186229    -0.080895903759108    -0.011910436968908
     0.045649680566104    -0.047569922134212    -0.002558164066175
   4   8
     0.101693198745592     0.010081986764752    -0.028842903715600
    -0.070811193649348     0.005691894848439     0.053131110646445
    -0.059398756632527     0.014927700060001     0.059165615630980
   4   9
     0.069035868295040    -0.004948705693793     0.047904109401783
    -0.004487446629318     0.071497079098055    -0.049950339511102
    -0.016113868897642     0.014178613714900    -0.045480377914681
   4  10
     0.002365769192551    -0.070626273419886    -0.055436785658445
     0.010636394156636     0.104576223700704     0.025558872239870
    -0.018362806638328     0.054864960421283     0.058795271715983
   4  11
    -1.016864935501462     1.232131127509499    -0.072421679082963
     1.232224552777743    -1.012176767336514     0.069408939523566
    -0.023458692952275     0.021376974999032     0.002774439135940
   4  12
    -0.015817994818045    -0.066192302595335     0.025802912341679
    -0.022749702189011    -0.057990316976112    -0.056156340594613
    -0.016702335836348     0.014707786535156    -0.024677053814086
   4  13
    -1.080372163977972    -0.010541854359569     1.147547664037077
    -0.000360400992646     0.101154462113382     0.033217406714613
     1.183485685172870     0.002868388285822    -1.013372130126692
   4  14
     0.099472006353131    -0.000539214735415    -0.037765420102135
    -0.009790276754795    -1.079896020658539    -1.149946561142109
    -0.007200926203872    -1.187331152512420    -1.017953107059791
   4  15
    -0.061350878014429    -0.023206917815836     0.054739169175771
    -0.064888968323933    -0.012414661644342    -0.029163021822211
    -0.017743273505100     0.012842683055754    -0.025560810292292
   4  16
     0.024965373743871    -0.033191022762863    -0.009026666120055
    -0.032183599073903     0.027248857984412     0.005742775348978
    -0.008267616763030     0.005389651359398    -0.030959606017167
   4  17
    -0.016231510846331    -0.003584232513339    -0.014308290869250
    -0.002521459985251     0.007209264408749     0.017390155953880
    -0.014147341414503     0.017002712648369     0.023477912447255
   4  18
    -0.003538279782549     0.013135456888169     0.006058437076792
     0.014193591514106     0.009172067578020    -0.022452066737939
     0.005831144168071    -0.022096416747257    -0.002995376121805
   4  19
     0.006952987235636     0.013007954661388     0.018516711646749
     0.013661525899661    -0.001065225527121    -0.008730663972934
     0.018697413748911    -0.009128944350600    -0.002817516800519
   4  20
     0.004679803615065    -0.003308243938229    -0.019176132134058
    -0.002822768576528    -0.013619939356872     0.011099562817079
    -0.019844608169723     0.010839642637919     0.023672773566303
   4  21
     0.005453679246662    -0.009167923328188     0.015888880919174
    -0.008534311576130     0.008399327810898    -0.018532896041780
     0.003378203854038    -0.006573132962589    -0.014048767092378
   4  22
     0.011892128494219    -0.006257654394784    -0.007912952830200
    -0.001116160333103     0.007194052972555     0.001935049549999
    -0.012727257023175     0.004875032798051     0.014434414191271
   4  23
    -0.006603789594274     0.023399359137568    -0.006481424066911
     0.009526763134819    -0.016997684951659    -0.010190016185891
    -0.002600514139895    -0.022124652350699    -0.008337026617647
   4  24
    -0.019835213579867     0.009000857926596     0.007735400688012
     0.023887774106399    -0.003589366813255     0.003936082206173
     0.019062506929418    -0.000425607511665    -0.008123667745959
   4  25
     0.004655126607042    -0.001483787196230    -0.004359181795095
    -0.005711402443008     0.014739699987865     0.005244383242021
    -0.007843130449221     0.009728710558540     0.014636189233340
   4  26
     0.094019627268060     0.008652123635304     0.002700978393490
     0.026139408129452    -0.896360770147962    -0.996322642482743
     0.016743611712195    -0.999689663622626    -0.902948551643313
   4  27
    -0.898039350911605     0.025873155024050     0.990558919724840
     0.009026251956719     0.096178472284399    -0.005153569476266
     0.993345935969752    -0.020048577551191    -0.898927432291449
   4  28
     0.015199141823992    -0.016990059690800     0.004978422828529
     0.015352362232108    -0.080635343307009    -0.027327612313242
     0.009587803541525    -0.003648336318261     0.013712959885874
   4  29
    -0.871793153994003     1.013065523080019     0.006522735217772
     1.013510620931544    -0.866297034383465    -0.009189487445832
     0.010224344670387    -0.013272611287634     0.023702354180999
   4  30
    -0.084383142390357     0.014334179514939     0.024630176404348
    -0.016593522290732     0.017589858757509    -0.007682323432724
     0.000589653403626    -0.012904802095928     0.013211348758472
   5   1
    -0.941785018741000    -0.949980566662753    -0.064927871123385
    -1.107166118863794    -0.934326403280102     0.067288027899927
    -0.071783445517284     0.061795312365613    -0.001958118151888
   5   2
    -0.827657618330610    -0.079540146756819    -1.013628928992080
    -0.030841402041298    -0.838762639348181     0.901633458354649
    -0.889486898672360     1.024079992263767    -1.737552005528315
   5   3
    -0.826839033295198    -0.031209688936478    -0.889271532939364
    -0.079356898578247    -0.838726112604683     1.024116011884741
    -1.014211883411384     0.901474230784811    -1.737792441528505
   5   4
    -0.941421155853755    -1.107478704226049    -0.070943220152771
    -0.949652126834983    -0.934832506901087     0.061867103642941
    -0.065714618874123     0.066819452258097    -0.001999687463104
   5   5
     7.280462860487450    -0.028994301275359    -0.097656607505472
    -0.044363558936693     7.218818429689410     0.151844257077577
    -0.086359012124389     0.155493349235331     7.233285761416427
   5   6
     0.002365769192551    -0.070626273419886    -0.055436785658445
     0.010636394156636     0.104576223700704     0.025558872239870
    -0.018362806638328     0.054864960421283     0.058795271715983
   5   7
    -0.084535295465427     0.034008665021387     0.009797212982493
     0.051129474571458    -0.020882370993053    -0.030705304435510
     0.045372157738502    -0.048452479777764    -0.002806911105933
   5   8
    -0.023779816606228     0.050551594516479     0.028777203810494
     0.034664128186229    -0.080895903759108    -0.011910436968908
     0.045649680566104    -0.047569922134212    -0.002558164066175
   5   9
     0.101693198745592     0.010081986764752    -0.028842903715600
    -0.070811193649348     0.005691894848439     0.053131110646445
    -0.059398756632527     0.014927700060001     0.059165615630980
   5  10
     0.069035868295040    -0.004948705693793     0.047904109401783
    -0.004487446629318     0.071497079098055    -0.049950339511102
    -0.016113868897642     0.014178613714900    -0.045480377914681
   5  11
    -0.061350878014429    -0.023206917815836     0.054739169175771
    -0.064888968323933    -0.012414661644342    -0.029163021822211
    -0.017743273505100     0.012842683055754    -0.025560810292292
   5  12
    -1.016864935501462     1.232131127509499    -0.072421679082963
     1.232224552777743    -1.012176767336514     0.069408939523566
    -0.023458692952275     0.021376974999032     0.002774439135940
   5  13
    -0.015817994818045    -0.066192302595335     0.025802912341679
    -0.022749702189011    -0.057990316976112    -0.056156340594613
    -0.016702335836348     0.014707786535156    -0.024677053814086
   5  14
    -1.080372163977972    -0.010541854359569     1.147547664037077
    -0.000360400992646     0.101154462113382     0.033217406714613
     1.183485685172870     0.002868388285822    -1.013372130126692
   5  15
     0.099472006353131    -0.000539214735415    -0.037765420102135
    -0.009790276754795    -1.079896020658539    -1.149946561142109
    -0.007200926203872    -1.187331152512420    -1.017953107059791
   5  16
     0.004679803615065    -0.003308243938229    -0.019176132134058
    -0.002822768576528    -0.013619939356872     0.011099562817079
    -0.019844608169723     0.010839642637919     0.023672773566303
   5  17
     0.024965373743871    -0.033191022762863    -0.009026666120055
    -0.032183599073903     0.027248857984412     0.005742775348978
    -0.008267616763030     0.005389651359398    -0.030959606017167
   5  18
    -0.016231510846331    -0.003584232513339    -0.014308290869250
    -0.002521459985251     0.007209264408749     0.017390155953880
    -0.014147341414503     0.017002712648369     0.023477912447255
   5  19
    -0.003538279782549     0.013135456888169     0.006058437076792
     0.014193591514106     0.009172067578020    -0.022452066737939
     0.005831144168071    -0.022096416747257    -0.002995376121805
   5  20
     0.006952987235636     0.013007954661388     0.018516711646749
     0.013661525899661    -0.001065225527121    -0.008730663972934
     0.018697413748911    -0.009128944350600    -0.002817516800519
   5  21
     0.004655126607042    -0.001483787196230    -0.004359181795095
    -0.005711402443008     0.014739699987865     0.005244383242021
    -0.007843130449221     0.009728710558540     0.014636189233340
   5  22
     0.005453679246662    -0.009167923328188     0.015888880919174
    -0.008534311576130     0.008399327810898    -0.018532896041780
     0.003378203854038    -0.006573132962589    -0.014048767092378
   5  23
     0.011892128494219    -0.006257654394784    -0.007912952830200
    -0.001116160333103     0.007194052972555     0.001935049549999