30
Lattice="1.9964129292614627 -1.9921918514603052 3.9900318289463432 -8.038669783813576 8.032935792753033 8.038678530486706 -3.9881438865959633 -5.976564908410659 1.9926868066257208" Properties=Z:I:1:pos:R:3:vasp_force:R:3 uuid=58d57b31-21f0-4bbb-8dd2-a17fc59a568f vasp_virial="-0.00986419946371424 0.18120268138303094 -0.16398745429349137 0.18120268138303094 0.1571809472325421 -0.03511260082079173 -0.16398745429349137 -0.03511260082079173 -0.22377700906536444" vasp_energy=-131.90538042 pbc="T T T"
      46      -0.04285115       0.04277297       0.05523013      -0.03020400       0.02949700      -0.05735400 
      46      -2.04054073      -3.93752716       2.04068264       0.00058300       0.00041100       0.00110800 
      46      -0.04600059      -1.94533956       2.04161428       0.00937800      -0.01053600       0.02260600 
      46      -2.03960433      -5.92971688       4.03523273       0.01068800      -0.00947800       0.02298100 
      46      -0.04506419      -3.93752928       4.03616438      -0.00042800       0.00021100       0.00032900 
      46      -5.98596132      -3.97879329       5.98597863      -0.00130200       0.00059300       0.00210900 
      46      -3.99142118      -1.98660570       5.98691027      -0.00094500      -0.00015300       0.00114100 
      46      -1.99688103       0.00558189       5.98784191      -0.00155200       0.00036000       0.00265800 
      46      -3.99048478      -3.97879542       7.98146036      -0.00189700      -0.00045300       0.00169200 
      46      -3.99235757       0.00558402       3.99236018      -0.00203700      -0.00033500       0.00188900 
      46      -4.01418395      -3.95787158       4.01421515       0.00131600       0.00515600       0.00099700 
      46      -2.01964381      -1.96568399       4.01514679       0.00123900       0.00036100      -0.00141400 
      46      -0.02510367       0.02650360       4.01607843       0.01039000      -0.00962000      -0.00152300 
      46      -2.01870742      -3.95787371       6.00969688       0.00190300       0.00010900      -0.00215300 
      46      -2.02058021       0.02650573       2.02059670      -0.00354200       0.00075800       0.00189300 
      46      -5.96506521      -2.00694932       7.96044357       0.00077500      -0.00116900      -0.00067500 
      46      -3.97052507      -0.01476172       7.96137521      -0.00054800      -0.00098200      -0.00061500 
      46      -5.96412881      -3.99913904       9.95499366       0.00093400      -0.00096700      -0.00049500 
      46      -5.96600160      -0.01475959       5.96589347       0.00110600      -0.00013300       0.00017700 
      46      -3.97146146       1.97742800       5.96682512       0.00092000      -0.00077500      -0.00106300 
      47      -7.98120365       0.00634820       7.98104860      -0.00035500       0.00127100      -0.00007300 
      47      -5.98666351       1.99853579       7.98198024      -0.00037800       0.00185400       0.00052900 
      47      -3.99212337       3.99072338       7.98291188      -0.00021300       0.00177500       0.00070800 
      47      -5.98572711       0.00634607       9.97653033      -0.00121200       0.00185000       0.00020400 
      47      -5.98759990       3.99072551       5.98743015      -0.00086900       0.00108000       0.00096100 
      47     -10.05761318       0.08992439      10.05782544       0.00784000      -0.00932300      -0.00102800 
      47      -8.06307304       2.08211198      10.05875708       0.00067200      -0.00176200      -0.00085200 
      47      -6.06853290       4.07429957      10.05968872      -0.00002800       0.00311400       0.00342400 
      47      -8.06213665       0.08992226      12.05330717      -0.00341900      -0.00063500       0.00236600 
      47      -8.06400944       4.07430170       8.06420699       0.00118600      -0.00207700      -0.00052600 
30
Lattice="1.9964129292614627 -1.9921918514603052 3.9900318289463432 -8.038669783813576 8.032935792753033 8.038678530486706 -3.9881438865959633 -5.976564908410659 1.9926868066257208" Properties=Z:I:1:pos:R:3:vasp_force:R:3 uuid=697f07d0-6756-40f1-9955-45b111abc3e5 vasp_virial="-0.01222777773982411 0.1776064521578612 -0.16475038145856485 0.1776064521578612 0.15620559720974234 -0.03462492580939183 -0.16475038145856485 -0.03462492580939183 -0.2233102771526136" vasp_energy=-131.90524752 pbc="T T T"
      46      -0.04693698       0.04685016       0.04706419      -0.00125200       0.00135300       0.00071200 
      46      -2.04054073      -3.93752716       2.04068264      -0.00001500       0.00161500       0.00131500 
      46      -0.04600059      -1.94533956       2.04161428      -0.00029600       0.00046700       0.00002900 
      46      -2.03960433      -5.92971688       4.03523273      -0.00014300       0.00036300       0.00039900 
      46      -0.04506419      -3.93752928       4.03616438      -0.00166800       0.00075400       0.00053100 
      46      -5.98018644      -3.98456405       5.98020375      -0.04974800       0.04793500       0.05102800 
      46      -3.99142118      -1.98660570       5.98691027      -0.00171300       0.00065900       0.00174600 
      46      -1.99688103       0.00558189       5.98784191      -0.00307900       0.00112000       0.00405400 
      46      -3.99048478      -3.97879542       7.98146036      -0.00267200       0.00105300       0.00309100 
      46      -3.99235757       0.00558402       3.99236018      -0.00283500       0.00045000       0.00250000 
      46      -4.01418395      -3.95787158       4.01421515       0.01519300      -0.00018200      -0.01558700 
      46      -2.01964381      -1.96568399       4.01514679       0.00116700       0.00025500      -0.00180400 
      46      -0.02510367       0.02650360       4.01607843       0.01450700      -0.01372100      -0.00270400 
      46      -2.01870742      -3.95787371       6.00969688       0.00200200       0.00019900      -0.00253500 
      46      -2.02058021       0.02650573       2.02059670       0.00177700      -0.01307600      -0.01459100 
      46      -5.96506521      -2.00694932       7.96044357       0.00018100      -0.01376600      -0.01306400 
      46      -3.97052507      -0.01476172       7.96137521      -0.00010500      -0.00069300      -0.00052600 
      46      -5.96412881      -3.99913904       9.95499366       0.01346100      -0.01348100      -0.00059300 
      46      -5.96600160      -0.01475959       5.96589347       0.00082000      -0.00055900       0.00026200 
      46      -3.97146146       1.97742800       5.96682512       0.01350200      -0.00018500      -0.01342400 
      47      -7.98120365       0.00634820       7.98104860      -0.00044000       0.00120000      -0.00015600 
      47      -5.98666351       1.99853579       7.98198024      -0.00022500       0.00205000       0.00046700 
      47      -3.99212337       3.99072338       7.98291188       0.00019100       0.00137100       0.00065700 
      47      -5.98572711       0.00634607       9.97653033      -0.00140500       0.00170000       0.00013700 
      47      -5.98759990       3.99072551       5.98743015      -0.00079800       0.00116800       0.00087400 
      47     -10.05761318       0.08992439      10.05782544       0.00035600      -0.00184500      -0.00069700 
      47      -8.06307304       2.08211198      10.05875708       0.00044700      -0.00204200      -0.00072500 
      47      -6.06853290       4.07429957      10.05968872       0.00039100      -0.00126200       0.00001600 
      47      -8.06213665       0.08992226      12.05330717       0.00093000      -0.00104700      -0.00101500 
      47      -8.06400944       4.07430170       8.06420699       0.00146600      -0.00185400      -0.00039600 
30
Lattice="1.9964129292614627 -1.9921918514603052 3.9900318289463432 -8.038669783813576 8.032935792753033 8.038678530486706 -3.9881438865959633 -5.976564908410659 1.9926868066257208" Properties=Z:I:1:pos:R:3:vasp_force:R:3 uuid=2f4b0f5e-d05d-4491-a977-6e436770891e vasp_virial="-0.005558896755711573 0.1797965019023073 -0.16338010443266823 0.1797965019023073 0.15586751576012156 -0.03659357708240487 -0.16338010443266823 -0.03659357708240487 -0.21881648655676927" vasp_energy=-131.90539063 pbc="T T T"
      46      -0.04693698       0.04685016       0.04706419      -0.00091000       0.00183700       0.00098500 
      46      -2.04054073      -3.93752716       2.04068264       0.00136100       0.00036700       0.00022400 
      46      -0.04600059      -1.94533956       2.04161428      -0.00070300       0.00074900       0.00048300 
      46      -2.03960433      -5.92971688       4.03523273      -0.00111900       0.00111300       0.00086000 
      46      -0.04506419      -3.93752928       4.03616438      -0.00134000       0.00084900      -0.00002800 
      46      -2.00316617       1.98975609       3.99596433       0.03700700       0.05605900      -0.01646700 
      46      -3.99142118      -1.98660570       5.98691027      -0.01462900      -0.01277400      -0.00014900 
      46      -1.99688103       0.00558189       5.98784191      -0.00321200      -0.00785000       0.00980400 
      46      -3.99048478      -3.97879542       7.98146036      -0.00171400      -0.00868500       0.00965600 
      46      -3.99235757       0.00558402       3.99236018      -0.01519500      -0.01301500       0.00211100 
      46      -4.01418395      -3.95787158       4.01421515      -0.00609000       0.00147700       0.00551800 
      46      -2.01964381      -1.96568399       4.01514679       0.00005100      -0.00072400      -0.00116200 
      46      -0.02510367       0.02650360       4.01607843       0.00473000      -0.00241900      -0.00224700 
      46      -2.01870742      -3.95787371       6.00969688       0.00063400      -0.00088800      -0.00170500 
      46      -2.02058021       0.02650573       2.02059670       0.00313800      -0.00463900      -0.00802200 
      46      -5.96506521      -2.00694932       7.96044357       0.00149400      -0.00680200      -0.00733100 
      46      -3.97052507      -0.01476172       7.96137521      -0.00134100      -0.00123100      -0.00044100 
      46      -5.96412881      -3.99913904       9.95499366       0.00569600      -0.00289100      -0.00073600 
      46      -5.96600160      -0.01475959       5.96589347       0.00023800      -0.00047700       0.00037700 
      46      -3.97146146       1.97742800       5.96682512      -0.00812400      -0.00019700       0.00822300 
      47      -7.98120365       0.00634820       7.98104860      -0.00028700       0.00125700      -0.00024900 
      47      -5.98666351       1.99853579       7.98198024      -0.00053500       0.00187600       0.00079400 
      47      -3.99212337       3.99072338       7.98291188      -0.00002500       0.00169500       0.00076000 
      47      -5.98572711       0.00634607       9.97653033      -0.00123600       0.00182100       0.00010500 
      47      -5.98759990       3.99072551       5.98743015      -0.00101100       0.00115800       0.00099200 
      47     -10.05761318       0.08992439      10.05782544       0.00018100      -0.00165500      -0.00070400 
      47      -8.06307304       2.08211198      10.05875708       0.00039200      -0.00193100      -0.00065900 
      47      -6.06853290       4.07429957      10.05968872       0.00041400      -0.00128100       0.00009400 
      47      -8.06213665       0.08992226      12.05330717       0.00098800      -0.00096800      -0.00088800 
      47      -8.06400944       4.07430170       8.06420699       0.00114800      -0.00183200      -0.00020000 
30
Lattice="1.9964129292614627 -1.9921918514603052 3.9900318289463432 -8.038669783813576 8.032935792753033 8.038678530486706 -3.9881438865959633 -5.976564908410659 1.9926868066257208" Properties=Z:I:1:pos:R:3:vasp_force:R:3 uuid=22ffc570-2a52-4659-968b-5b2616b617fc vasp_virial="-0.010121500389974301 0.1798174450009564 -0.16343694998614433 0.1798174450009564 0.16367629968499087 -0.0359533166379903 -0.16343694998614433 -0.0359533166379903 -0.22158396744968273" vasp_energy=-131.90536732 pbc="T T T"
      46      -0.04693698       0.04685016       0.04706419      -0.00125900       0.00053600       0.00065500 
      46      -2.04054073      -3.93752716       2.04068264       0.00002400       0.00136000       0.00087100 
      46      -0.04600059      -1.94533956       2.04161428      -0.00105100       0.00167400       0.00070500 
      46      -2.03960433      -5.92971688       4.03523273      -0.00065100       0.00079400       0.00110200 
      46      -0.04506419      -3.93752928       4.03616438      -0.00048700      -0.00074400      -0.00044200 
      46      -5.98061258      -3.97077777       5.98330612      -0.04040400      -0.05626900       0.02040100 
      46      -3.99142118      -1.98660570       5.98691027       0.01301700       0.01248400       0.00279400 
      46      -1.99688103       0.00558189       5.98784191      -0.00017500       0.00793900      -0.00386600 
      46      -3.99048478      -3.97879542       7.98146036      -0.00180000       0.00841100      -0.00633600 
      46      -3.99235757       0.00558402       3.99236018       0.01107700       0.01212200       0.00192100 
      46      -4.01418395      -3.95787158       4.01421515       0.00976600      -0.00186100      -0.01129300 
      46      -2.01964381      -1.96568399       4.01514679       0.00220900       0.00161400      -0.00140400 
      46      -0.02510367       0.02650360       4.01607843      -0.00242300       0.00166500      -0.00199500 
      46      -2.01870742      -3.95787371       6.00969688       0.00301700       0.00132400      -0.00236100 
      46      -2.02058021       0.02650573       2.02059670       0.00043900       0.00525100       0.00426300 
      46      -5.96506521      -2.00694932       7.96044357       0.00030700       0.00451100       0.00629000 
      46      -3.97052507      -0.01476172       7.96137521       0.00002500      -0.00043100      -0.00063000 
      46      -5.96412881      -3.99913904       9.95499366      -0.00350400       0.00058700      -0.00084300 
      46      -5.96600160      -0.01475959       5.96589347       0.00166200       0.00044600       0.00011900 
      46      -3.97146146       1.97742800       5.96682512       0.00977500      -0.00156800      -0.00993000 
      47      -7.98120365       0.00634820       7.98104860      -0.00041700       0.00141500       0.00000200 
      47      -5.98666351       1.99853579       7.98198024      -0.00022000       0.00189700       0.00042700 
      47      -3.99212337       3.99072338       7.98291188      -0.00017900       0.00163700       0.00070200 
      47      -5.98572711       0.00634607       9.97653033      -0.00124100       0.00188600       0.00045800 
      47      -5.98759990       3.99072551       5.98743015      -0.00084700       0.00100900       0.00082300 
      47     -10.05761318       0.08992439      10.05782544       0.00012100      -0.00162100      -0.00075600 
      47      -8.06307304       2.08211198      10.05875708       0.00045000      -0.00178000      -0.00055100 
      47      -6.06853290       4.07429957      10.05968872       0.00038100      -0.00133300       0.00015600 
      47      -8.06213665       0.08992226      12.05330717       0.00096400      -0.00113800      -0.00092400 
      47      -8.06400944       4.07430170       8.06420699       0.00142000      -0.00181600      -0.00035600 
30
Lattice="1.9964129292614627 -1.9921918514603052 3.9900318289463432 -8.038669783813576 8.032935792753033 8.038678530486706 -3.9881438865959633 -5.976564908410659 1.9926868066257208" Properties=Z:I:1:pos:R:3:vasp_force:R:3 uuid=8fbb93d7-919b-42b9-a9f9-09358e79020d vasp_virial="-0.009648784734752327 0.1780223222596071 -0.16389171441395278 0.1780223222596071 0.15726471962713837 -0.036102910199769404 -0.16389171441395278 -0.036102910199769404 -0.22894995443168592" vasp_energy=-131.90537853 pbc="T T T"
      46      -0.04693698       0.04685016       0.04706419      -0.00123300       0.00611100       0.00428000 
      46      -2.04054073      -3.93752716       2.04068264      -0.00431900       0.00092500       0.00395900 
      46      -0.04600059      -1.94533956       2.04161428      -0.00136100       0.00145700       0.00090800 
      46      -2.03960433      -5.92971688       4.03523273       0.00889800      -0.00891200       0.00108500 
      46      -0.04506419      -3.93752928       4.03616438      -0.00126500       0.00043500       0.00008000 
      46      -5.98596132      -3.97879329       5.98597863      -0.00573900       0.00085400       0.00551100 
      46      -3.99142118      -1.98660570       5.98691027      -0.00160700       0.00409100       0.00472700 
      46      -1.99688103       0.00558189       5.98784191      -0.00176500       0.00009300       0.00343200 
      46      -3.99048478      -3.97879542       7.98146036       0.00676800      -0.00888400       0.00147000 
      46      -3.99235757       0.00558402       3.99236018      -0.00177300      -0.00022400       0.00267200 
      46      -4.01009813      -3.96194877       4.02238108      -0.02473600       0.02811400      -0.05800500 
      46      -2.01964381      -1.96568399       4.01514679       0.00037800       0.00225700      -0.00337500 
      46      -0.02510367       0.02650360       4.01607843       0.01281200      -0.01137700       0.02033200 
      46      -2.01870742      -3.95787371       6.00969688       0.01261100      -0.01166600       0.02043200 
      46      -2.02058021       0.02650573       2.02059670      -0.00009300       0.00103000      -0.00393100 
      46      -5.96506521      -2.00694932       7.96044357       0.00017600      -0.00052200      -0.00012600 
      46      -3.97052507      -0.01476172       7.96137521      -0.00057100      -0.00071200      -0.00075600 
      46      -5.96412881      -3.99913904       9.95499366       0.00145500      -0.00125500      -0.00119600 
      46      -5.96600160      -0.01475959       5.96589347       0.00096500      -0.00045200      -0.00015400 
      46      -3.97146146       1.97742800       5.96682512       0.00071100      -0.00109500      -0.00117900 
      47      -7.98120365       0.00634820       7.98104860      -0.00030400       0.00119400      -0.00006500 
      47      -5.98666351       1.99853579       7.98198024      -0.00049200       0.00185000       0.00062000 
      47      -3.99212337       3.99072338       7.98291188      -0.00015100       0.00170300       0.00068200 
      47      -5.98572711       0.00634607       9.97653033      -0.00136900       0.00180400       0.00023100 
      47      -5.98759990       3.99072551       5.98743015      -0.00099000       0.00110300       0.00092100 
      47     -10.05761318       0.08992439      10.05782544       0.00011100      -0.00170900      -0.00082100 
      47      -8.06307304       2.08211198      10.05875708       0.00039400      -0.00191200      -0.00070200 
      47      -6.06853290       4.07429957      10.05968872       0.00039200      -0.00118500       0.00011000 
      47      -8.06213665       0.08992226      12.05330717       0.00102800      -0.00120100      -0.00085000 
      47      -8.06400944       4.07430170       8.06420699       0.00106700      -0.00191400      -0.00029300 
30
Lattice="1.9964129292614627 -1.9921918514603052 3.9900318289463432 -8.038669783813576 8.032935792753033 8.038678530486706 -3.9881438865959633 -5.976564908410659 1.9926868066257208" Properties=Z:I:1:pos:R:3:vasp_force:R:3 uuid=f5051d4f-2287-40bb-a91b-2d547fd8e83b vasp_virial="-0.014848656942194045 0.17817789956385735 -0.1631287872488793 0.17817789956385735 0.15149639188493608 -0.03666239012082326 -0.1631287872488793 -0.03666239012082326 -0.22157798370721157" vasp_energy=-131.90540411 pbc="T T T"
      46      -0.04693698       0.04685016       0.04706419      -0.00099300      -0.00389600      -0.00271100 
      46      -2.04054073      -3.93752716       2.04068264       0.00572100       0.00070900      -0.00292000 
      46      -0.04600059      -1.94533956       2.04161428      -0.00048900       0.00088100       0.00025900 
      46      -2.03960433      -5.92971688       4.03523273      -0.01058200       0.01059000       0.00077600 
      46      -0.04506419      -3.93752928       4.03616438      -0.00064500      -0.00040200      -0.00056900 
      46      -5.98596132      -3.97879329       5.98597863       0.00332600      -0.00005300      -0.00123700 
      46      -3.99142118      -1.98660570       5.98691027      -0.00071500      -0.00485800      -0.00214900 
      46      -1.99688103       0.00558189       5.98784191      -0.00176500       0.00028900       0.00212500 
      46      -3.99048478      -3.97879542       7.98146036      -0.01052400       0.00843700       0.00227300 
      46      -3.99235757       0.00558402       3.99236018      -0.00193100      -0.00016700       0.00135100 
      46      -4.01826978      -3.95379439       4.00604921       0.02973700      -0.02781100       0.05332400 
      46      -2.01964381      -1.96568399       4.01514679       0.00177600      -0.00147400       0.00077100 
      46      -0.02510367       0.02650360       4.01607843      -0.01110600       0.01004200      -0.02463700 
      46      -2.01870742      -3.95787371       6.00969688      -0.00853300       0.01253600      -0.02453800 
      46      -2.02058021       0.02650573       2.02059670       0.00358300      -0.00040600       0.00022300 
      46      -5.96506521      -2.00694932       7.96044357       0.00159900      -0.00189800      -0.00110200 
      46      -3.97052507      -0.01476172       7.96137521      -0.00084200      -0.00099600      -0.00037200 
      46      -5.96412881      -3.99913904       9.95499366       0.00070200      -0.00111600      -0.00046800 
      46      -5.96600160      -0.01475959       5.96589347       0.00086200       0.00035600       0.00058400 
      46      -3.97146146       1.97742800       5.96682512       0.00103600      -0.00079700      -0.00080400 
      47      -7.98120365       0.00634820       7.98104860      -0.00050000       0.00142700      -0.00021300 
      47      -5.98666351       1.99853579       7.98198024      -0.00035500       0.00187200       0.00056200 
      47      -3.99212337       3.99072338       7.98291188      -0.00016200       0.00158100       0.00074600 
      47      -5.98572711       0.00634607       9.97653033      -0.00120800       0.00185500       0.00029300 
      47      -5.98759990       3.99072551       5.98743015      -0.00097200       0.00100700       0.00086100 
      47     -10.05761318       0.08992439      10.05782544       0.00009000      -0.00162300      -0.00067800 
      47      -8.06307304       2.08211198      10.05875708       0.00035100      -0.00185400      -0.00055000 
      47      -6.06853290       4.07429957      10.05968872       0.00030800      -0.00148000       0.00010300 
      47      -8.06213665       0.08992226      12.05330717       0.00083100      -0.00096100      -0.00100400 
      47      -8.06400944       4.07430170       8.06420699       0.00140100      -0.00179000      -0.00029800 
30
Lattice="1.9964129292614627 -1.9921918514603052 3.9900318289463432 -8.038669783813576 8.032935792753033 8.038678530486706 -3.9881438865959633 -5.976564908410659 1.9926868066257208" Properties=Z:I:1:pos:R:3:vasp_force:R:3 uuid=703c806b-aeb6-479f-9ea6-9834f8ce8007 vasp_virial="-0.010680980311028158 0.17720254954105763 -0.16498075554370464 0.17720254954105763 0.15604702803425646 -0.03527116999627758 -0.16498075554370464 -0.03527116999627758 -0.22280764278503581" vasp_energy=-131.90524493 pbc="T T T"
      46      -0.04693698       0.04685016       0.04706419      -0.00036800       0.01375800       0.01326600 
      46      -2.04054073      -3.93752716       2.04068264      -0.01191100       0.00010600       0.01298000 
      46      -0.04600059      -1.94533956       2.04161428      -0.00077600       0.00172300       0.00054600 
      46      -2.03960433      -5.92971688       4.03523273      -0.01324500       0.01325800       0.00073500 
      46      -0.04506419      -3.93752928       4.03616438      -0.00149600      -0.00010600      -0.00027400 
      46      -5.98596132      -3.97879329       5.98597863      -0.01458600       0.00041000       0.01491000 
      46      -3.99142118      -1.98660570       5.98691027      -0.00113300       0.01298000       0.01402500 
      46      -1.99688103       0.00558189       5.98784191      -0.00191800       0.00019400       0.00328800 
      46      -3.99048478      -3.97879542       7.98146036      -0.01512300       0.01303400       0.00239100 
      46      -3.99235757       0.00558402       3.99236018      -0.00184800      -0.00001000       0.00253500 
      46      -4.01995883      -3.95210083       4.01999003       0.04999700      -0.04807400      -0.05116400 
      46      -2.01964381      -1.96568399       4.01514679       0.00215600      -0.00020600      -0.00177200 
      46      -0.02510367       0.02650360       4.01607843       0.00206000      -0.00174100      -0.00340100 
      46      -2.01870742      -3.95787371       6.00969688       0.00316500      -0.00072800      -0.00330200 
      46      -2.02058021       0.02650573       2.02059670       0.00235700      -0.00075800      -0.00231400 
      46      -5.96506521      -2.00694932       7.96044357       0.00106200      -0.00135600      -0.00050800 
      46      -3.97052507      -0.01476172       7.96137521       0.00006600      -0.00155100      -0.00133000 
      46      -5.96412881      -3.99913904       9.95499366       0.00035500      -0.00058400      -0.00025500 
      46      -5.96600160      -0.01475959       5.96589347       0.00033900       0.00070100       0.00078200 
      46      -3.97146146       1.97742800       5.96682512       0.00160600      -0.00169600      -0.00176000 
      47      -7.98120365       0.00634820       7.98104860      -0.00058700       0.00152100      -0.00018000 
      47      -5.98666351       1.99853579       7.98198024      -0.00058700       0.00189500       0.00070200 
      47      -3.99212337       3.99072338       7.98291188      -0.00008800       0.00164200       0.00081700 
      47      -5.98572711       0.00634607       9.97653033      -0.00126200       0.00178700       0.00036500 
      47      -5.98759990       3.99072551       5.98743015      -0.00098800       0.00124600       0.00100300 
      47     -10.05761318       0.08992439      10.05782544       0.00020800      -0.00152300      -0.00072000 
      47      -8.06307304       2.08211198      10.05875708       0.00025700      -0.00196400      -0.00059500 
      47      -6.06853290       4.07429957      10.05968872       0.00053300      -0.00117400       0.00024400 
      47      -8.06213665       0.08992226      12.05330717       0.00065000      -0.00077500      -0.00085500 
      47      -8.06400944       4.07430170       8.06420699       0.00110400      -0.00200800      -0.00016000 
30
Lattice="1.9964129292614627 -1.9921918514603052 3.9900318289463432 -8.038669783813576 8.032935792753033 8.038678530486706 -3.9881438865959633 -5.976564908410659 1.9926868066257208" Properties=Z:I:1:pos:R:3:vasp_force:R:3 uuid=1e5c7c3b-5b3e-448f-b621-d313ae36aca1 vasp_virial="-0.01300267238983988 0.17815396459397273 -0.1631228035064082 0.17815396459397273 0.1540574336625944 -0.0362195931779571 -0.1631228035064082 -0.0362195931779571 -0.22590422951386332" vasp_energy=-131.90536009 pbc="T T T"
      46      -0.04693698       0.04685016       0.04706419      -0.00192000      -0.01192200      -0.01215400 
      46      -2.04054073      -3.93752716       2.04068264       0.01374600       0.00162900      -0.01240200 
      46      -0.04600059      -1.94533956       2.04161428      -0.00101400       0.00062900       0.00058300 
      46      -2.03960433      -5.92971688       4.03523273       0.01191400      -0.01189200       0.00125100 
      46      -0.04506419      -3.93752928       4.03616438      -0.00037500       0.00013100      -0.00025300 
      46      -5.98596132      -3.97879329       5.98597863       0.01189400       0.00024600      -0.01026000 
      46      -3.99142118      -1.98660570       5.98691027      -0.00100800      -0.01342600      -0.01105800 
      46      -1.99688103       0.00558189       5.98784191      -0.00151800       0.00014800       0.00225900 
      46      -3.99048478      -3.97879542       7.98146036       0.01115200      -0.01323400       0.00115100 
      46      -3.99235757       0.00558402       3.99236018      -0.00175700      -0.00040800       0.00148800 
      46      -4.00840908      -3.96364234       4.00844027      -0.04697600       0.04894200       0.04712100 
      46      -2.01964381      -1.96568399       4.01514679       0.00013900       0.00104200      -0.00083900 
      46      -0.02510367       0.02650360       4.01607843       0.00023400       0.00093200      -0.00092600 
      46      -2.01870742      -3.95787371       6.00969688       0.00043700       0.00104300      -0.00082700 
      46      -2.02058021       0.02650573       2.02059670       0.00114500       0.00130800      -0.00139100 
      46      -5.96506521      -2.00694932       7.96044357       0.00077500      -0.00108100      -0.00071700 
      46      -3.97052507      -0.01476172       7.96137521      -0.00139400      -0.00020000       0.00015900 
      46      -5.96412881      -3.99913904       9.95499366       0.00184600      -0.00179500      -0.00140900 
      46      -5.96600160      -0.01475959       5.96589347       0.00154100      -0.00079000      -0.00035400 
      46      -3.97146146       1.97742800       5.96682512       0.00023500      -0.00023300      -0.00026400 
      47      -7.98120365       0.00634820       7.98104860      -0.00015000       0.00108100      -0.00011800 