1
properties=Z:I:1:pos:R:3:masses:R:1:momenta:R:3:vasp_force:R:3 vasp_energy=-2.70839590 vasp_virial="0.40560847       0.00000000       0.00000000       0.00000000       0.40560847       0.00000000       0.00000000       0.00000000       0.40560847" cutoff=-1.00000000 nneightol=1.20000000 pbc="T T T" Lattice="2.04500000       0.00000000       2.04500000       2.04500000       2.04500000       0.00000000      -2.04500000       2.04500000       0.00000000"
      47      0.00000000      0.00000000      0.00000000    107.86820000      0.00000000      0.00000000      0.00000000     -0.00000000      0.00000000      0.00000000
1
properties=Z:I:1:pos:R:3:masses:R:1:momenta:R:3:vasp_force:R:3 vasp_energy=-3.52881174 vasp_virial="-3.04503658      -0.00000000       0.00000000      -0.00000000      -3.04503658      -0.00000000       0.00000000      -0.00000000      -3.04503658" cutoff=-1.00000000 nneightol=1.20000000 pbc="T T T" Lattice="2.47500000       0.00000000       2.47500000       2.47500000       2.47500000       0.00000000      -2.47500000       2.47500000       0.00000000"
      46      0.00000000      0.00000000      0.00000000    106.42000000      0.00000000      0.00000000      0.00000000     -0.00000000      0.00000000      0.00000000
4
properties=Z:I:1:pos:R:3:masses:R:1:momenta:R:3:vasp_force:R:3 vasp_energy=-13.01624435 vasp_virial="-5.60184368       0.07070224       0.07070224       0.07070224      -5.60184368      -0.07070224       0.07070224      -0.07070224      -5.60184368" cutoff=-1.00000000 nneightol=1.20000000 pbc="T T T" Lattice="2.15250000       2.15250000       0.00000000      -4.30500000       6.45750000       6.45750000       0.00000000      -2.15250000       2.15250000"
      47      0.00000000      0.00000000      0.00000000    107.86820000      0.00000000      0.00000000      0.00000000      0.18924700     -0.18924700     -0.18924700
      47      0.00000000      2.15250000      2.15250000    107.86820000      0.00000000      0.00000000      0.00000000      0.00000000      0.00000000      0.00000000
      47     -2.15250000      2.15250000      4.30500000    107.86820000      0.00000000      0.00000000      0.00000000     -0.18924700      0.18924700      0.18924700
      46     -2.15250000      4.30500000      6.45750000    106.42000000      0.00000000      0.00000000      0.00000000      0.00000000     -0.00000000      0.00000000
4
properties=Z:I:1:pos:R:3:masses:R:1:momenta:R:3:vasp_force:R:3 vasp_energy=-13.94085022 vasp_virial="-9.61527421       0.07292523       0.07292523       0.07292523      -9.61527421      -0.07292523       0.07292523      -0.07292523      -9.61527421" cutoff=-1.00000000 nneightol=1.20000000 pbc="T T T" Lattice="2.26000000       2.26000000       0.00000000      -4.52000000       6.78000000       6.78000000       0.00000000      -2.26000000       2.26000000"
      47      0.00000000      0.00000000      0.00000000    107.86820000      0.00000000      0.00000000      0.00000000      0.19162800     -0.19162800     -0.19162800
      47      0.00000000      2.26000000      2.26000000    107.86820000      0.00000000      0.00000000      0.00000000     -0.19162800      0.19162800      0.19162800
      46     -2.26000000      2.26000000      4.52000000    106.42000000      0.00000000      0.00000000      0.00000000     -0.06576700      0.06576700      0.06576700
      46     -2.26000000      4.52000000      6.78000000    106.42000000      0.00000000      0.00000000      0.00000000      0.06576700     -0.06576700     -0.06576700
4
properties=Z:I:1:pos:R:3:masses:R:1:momenta:R:3:vasp_force:R:3 vasp_energy=-14.23630877 vasp_virial="-11.52710048       0.00665314       0.00665314       0.00665314     -11.52710048      -0.00665314       0.00665314      -0.00665314     -11.52710048" cutoff=-1.00000000 nneightol=1.20000000 pbc="T T T" Lattice="2.36750000       2.36750000       0.00000000      -4.73500000       7.10250000       7.10250000       0.00000000      -2.36750000       2.36750000"
      47      0.00000000      0.00000000      0.00000000    107.86820000      0.00000000      0.00000000      0.00000000      0.00000000     -0.00000000      0.00000000
      46      0.00000000      2.36750000      2.36750000    106.42000000      0.00000000      0.00000000      0.00000000     -0.07839900      0.07839900      0.07839900
      46     -2.36750000      2.36750000      4.73500000    106.42000000      0.00000000      0.00000000      0.00000000      0.00000000     -0.00000000      0.00000000
      46     -2.36750000      4.73500000      7.10250000    106.42000000      0.00000000      0.00000000      0.00000000      0.07839900     -0.07839900     -0.07839900
4
properties=Z:I:1:pos:R:3:masses:R:1:momenta:R:3:vasp_force:R:3 vasp_energy=-13.09067750 vasp_virial="-5.43862134       0.10094288       0.00000000       0.10094288      -5.43862134      -0.00000000       0.00000000      -0.00000000      -5.62973586" cutoff=-1.00000000 nneightol=1.20000000 pbc="T T T" Lattice="2.15250000       2.15250000       0.00000000      -4.30500000       4.30500000       0.00000000       0.00000000       0.00000000       4.30500000"
      47      0.00000000      0.00000000      0.00000000    107.86820000      0.00000000      0.00000000      0.00000000      0.17892900     -0.17892900      0.00000000
      47      0.00000000      2.15250000      2.15250000    107.86820000      0.00000000      0.00000000      0.00000000      0.00000000     -0.00000000      0.00000000
      47     -2.15250000      2.15250000      0.00000000    107.86820000      0.00000000      0.00000000      0.00000000     -0.17892900      0.17892900      0.00000000
      46     -2.15250000      4.30500000      2.15250000    106.42000000      0.00000000      0.00000000      0.00000000      0.00000000     -0.00000000      0.00000000
4
properties=Z:I:1:pos:R:3:masses:R:1:momenta:R:3:vasp_force:R:3 vasp_energy=-14.07319914 vasp_virial="-9.52855576       0.17383461       0.00000000       0.17383461      -9.52855576       0.00000000       0.00000000       0.00000000      -9.44360735" cutoff=-1.00000000 nneightol=1.20000000 pbc="T T T" Lattice="2.26000000       2.26000000       0.00000000      -4.52000000       4.52000000       0.00000000       0.00000000       0.00000000       4.52000000"
      47      0.00000000      0.00000000      0.00000000    107.86820000      0.00000000      0.00000000      0.00000000      0.16382800     -0.16382800      0.00000000
      47      0.00000000      2.26000000      2.26000000    107.86820000      0.00000000      0.00000000      0.00000000     -0.16382800      0.16382800      0.00000000
      46     -2.26000000      2.26000000      0.00000000    106.42000000      0.00000000      0.00000000      0.00000000     -0.11379300      0.11379300      0.00000000
      46     -2.26000000      4.52000000      2.26000000    106.42000000      0.00000000      0.00000000      0.00000000      0.11379300     -0.11379300      0.00000000
4
properties=Z:I:1:pos:R:3:masses:R:1:momenta:R:3:vasp_force:R:3 vasp_energy=-14.28316132 vasp_virial="-11.51798314       0.10788407       0.00000000       0.10788407     -11.51798314      -0.00000000       0.00000000      -0.00000000     -11.28742717" cutoff=-1.00000000 nneightol=1.20000000 pbc="T T T" Lattice="2.36750000       2.36750000       0.00000000      -4.73500000       4.73500000       0.00000000       0.00000000       0.00000000       4.73500000"
      47      0.00000000      0.00000000      0.00000000    107.86820000      0.00000000      0.00000000      0.00000000      0.00000000      0.00000000      0.00000000
      46      0.00000000      2.36750000      2.36750000    106.42000000      0.00000000      0.00000000      0.00000000     -0.12088900      0.12088900      0.00000000
      46     -2.36750000      2.36750000      0.00000000    106.42000000      0.00000000      0.00000000      0.00000000      0.00000000      0.00000000      0.00000000
      46     -2.36750000      4.73500000      2.36750000    106.42000000      0.00000000      0.00000000      0.00000000      0.12088900     -0.12088900      0.00000000
4
properties=Z:I:1:pos:R:3:masses:R:1:momenta:R:3:vasp_force:R:3 vasp_energy=-13.09363292 vasp_virial="-5.47777426       0.13470271       0.02773482       0.13470271      -5.47777426      -0.02773482       0.02773482      -0.02773482      -5.62472422" cutoff=-1.00000000 nneightol=1.20000000 pbc="T T T" Lattice="2.15250000       2.15250000       0.00000000      -4.30500000       2.15250000       2.15250000       2.15250000      -2.15250000       4.30500000"
      47      0.00000000      0.00000000      0.00000000    107.86820000      0.00000000      0.00000000      0.00000000      0.00963900     -0.00963900     -0.18889400
      47      0.00000000      2.15250000      2.15250000    107.86820000      0.00000000      0.00000000      0.00000000      0.00000000     -0.00000000     -0.00000000
      47      2.15250000      0.00000000      2.15250000    107.86820000      0.00000000      0.00000000      0.00000000     -0.00963900      0.00963900      0.18889400
      46      0.00000000      0.00000000      4.30500000    106.42000000      0.00000000      0.00000000      0.00000000      0.00000000     -0.00000000     -0.00000000
4
properties=Z:I:1:pos:R:3:masses:R:1:momenta:R:3:vasp_force:R:3 vasp_energy=-14.09459935 vasp_virial="-9.42136044       0.13627400      -0.02968618       0.13627400      -9.42136044       0.02968618      -0.02968618       0.02968618      -9.57564038" cutoff=-1.00000000 nneightol=1.20000000 pbc="T T T" Lattice="2.26000000       2.26000000       0.00000000      -4.52000000       2.26000000       2.26000000       2.26000000      -2.26000000       4.52000000"
      47      0.00000000      0.00000000      0.00000000    107.86820000      0.00000000      0.00000000      0.00000000      0.00737200     -0.00737200     -0.16067300
      47      0.00000000      2.26000000      2.26000000    107.86820000      0.00000000      0.00000000      0.00000000     -0.00737200      0.00737200      0.16067300
      46      2.26000000      0.00000000      2.26000000    106.42000000      0.00000000      0.00000000      0.00000000     -0.02061200      0.02061200      0.14871700
      46      0.00000000      0.00000000      4.52000000    106.42000000      0.00000000      0.00000000      0.00000000      0.02061200     -0.02061200     -0.14871700
4
properties=Z:I:1:pos:R:3:masses:R:1:momenta:R:3:vasp_force:R:3 vasp_energy=-14.29789985 vasp_virial="-11.49646398      -0.04569601      -0.05371277      -0.04569601     -11.49646398       0.05371277      -0.05371277       0.05371277     -11.39488651" cutoff=-1.00000000 nneightol=1.20000000 pbc="T T T" Lattice="2.36750000       2.36750000       0.00000000      -4.73500000       2.36750000       2.36750000       2.36750000      -2.36750000       4.73500000"
      47      0.00000000      0.00000000      0.00000000    107.86820000      0.00000000      0.00000000      0.00000000      0.00000000      0.00000000      0.00000000
      46      0.00000000      2.36750000      2.36750000    106.42000000      0.00000000      0.00000000      0.00000000      0.00691700     -0.00691700      0.13465200
      46      2.36750000      0.00000000      2.36750000    106.42000000      0.00000000      0.00000000      0.00000000      0.00000000      0.00000000      0.00000000
      46      0.00000000      0.00000000      4.73500000    106.42000000      0.00000000      0.00000000      0.00000000     -0.00691700      0.00691700     -0.13465200
4
properties=Z:I:1:pos:R:3:masses:R:1:momenta:R:3:vasp_force:R:3 vasp_energy=-13.03091938 vasp_virial="-5.41325241       0.00000000       0.00000000       0.00000000      -5.41325241      -0.00000000       0.00000000      -0.00000000      -5.75741311" cutoff=-1.00000000 nneightol=1.20000000 pbc="T T T" Lattice="2.15250000       2.15250000       0.00000000      -2.15250000       2.15250000       0.00000000       0.00000000       0.00000000       8.61000000"
      47      0.00000000      0.00000000      0.00000000    107.86820000      0.00000000      0.00000000      0.00000000     -0.00000000      0.00000000     -0.36903700
      47      0.00000000      2.15250000      2.15250000    107.86820000      0.00000000      0.00000000      0.00000000      0.00000000      0.00000000      0.00000000
      47      0.00000000      0.00000000      4.30500000    107.86820000      0.00000000      0.00000000      0.00000000     -0.00000000      0.00000000      0.36903700
      46      0.00000000      2.15250000      6.45750000    106.42000000      0.00000000      0.00000000      0.00000000     -0.00000000     -0.00000000      0.00000000
2
properties=Z:I:1:pos:R:3:masses:R:1:momenta:R:3:vasp_force:R:3 vasp_energy=-7.05088790 vasp_virial="-4.79541076       0.04862989       0.04862989       0.04862989      -4.79541076      -0.04862989       0.04862989      -0.04862989      -4.79541076" cutoff=-1.00000000 nneightol=1.20000000 pbc="T T T" Lattice="2.26000000       2.26000000       0.00000000      -2.26000000       2.26000000       4.52000000       0.00000000      -2.26000000       2.26000000"
      47      0.00000000      0.00000000      0.00000000    107.86820000      0.00000000      0.00000000      0.00000000      0.00000000      0.00000000     -0.00000000
      46      0.00000000      2.26000000      2.26000000    106.42000000      0.00000000      0.00000000      0.00000000     -0.00000000     -0.00000000      0.00000000
4
properties=Z:I:1:pos:R:3:masses:R:1:momenta:R:3:vasp_force:R:3 vasp_energy=-13.98646288 vasp_virial="-9.53487340       0.00000000       0.00000000       0.00000000      -9.53487340       0.00000000       0.00000000       0.00000000      -9.71483661" cutoff=-1.00000000 nneightol=1.20000000 pbc="T T T" Lattice="2.26000000       2.26000000       0.00000000      -2.26000000       2.26000000       0.00000000       0.00000000       0.00000000       9.04000000"
      47      0.00000000      0.00000000      0.00000000    107.86820000      0.00000000      0.00000000      0.00000000      0.00000000     -0.00000000     -0.36383300
      47      0.00000000      2.26000000      2.26000000    107.86820000      0.00000000      0.00000000      0.00000000     -0.00000000      0.00000000      0.36383300
      46      0.00000000      0.00000000      4.52000000    106.42000000      0.00000000      0.00000000      0.00000000     -0.00000000      0.00000000      0.18543400
      46      0.00000000      2.26000000      6.78000000    106.42000000      0.00000000      0.00000000      0.00000000      0.00000000     -0.00000000     -0.18543400
4
properties=Z:I:1:pos:R:3:masses:R:1:momenta:R:3:vasp_force:R:3 vasp_energy=-14.25515070 vasp_virial="-11.52370798       0.00000000       0.00000000       0.00000000     -11.52370798      -0.00000000       0.00000000      -0.00000000     -11.36024063" cutoff=-1.00000000 nneightol=1.20000000 pbc="T T T" Lattice="2.36750000       2.36750000       0.00000000      -2.36750000       2.36750000       0.00000000       0.00000000       0.00000000       9.47000000"
      47      0.00000000      0.00000000      0.00000000    107.86820000      0.00000000      0.00000000      0.00000000      0.00000000     -0.00000000      0.00000000
      46      0.00000000      2.36750000      2.36750000    106.42000000      0.00000000      0.00000000      0.00000000      0.00000000      0.00000000      0.20899000
      46      0.00000000      0.00000000      4.73500000    106.42000000      0.00000000      0.00000000      0.00000000      0.00000000     -0.00000000      0.00000000
      46      0.00000000      2.36750000      7.10250000    106.42000000      0.00000000      0.00000000      0.00000000     -0.00000000     -0.00000000     -0.20899000
4
properties=Z:I:1:pos:R:3:masses:R:1:momenta:R:3:vasp_force:R:3 vasp_energy=-13.12977195 vasp_virial="-5.39049039       0.00000000       0.00000000       0.00000000      -5.65406152       0.00000000       0.00000000       0.00000000      -5.39049039" cutoff=-1.00000000 nneightol=1.20000000 pbc="T T T" Lattice="0.00000000       0.00000000       4.30500000      -2.15250000       4.30500000       2.15250000      -4.30500000       0.00000000       0.00000000"
      47      0.00000000      0.00000000      0.00000000    107.86820000      0.00000000      0.00000000      0.00000000      0.00000000      0.00000000      0.00000000
      47     -4.30500000      2.15250000      2.15250000    107.86820000      0.00000000      0.00000000      0.00000000      0.00000000      0.00000000     -0.00000000
      47     -2.15250000      0.00000000      2.15250000    107.86820000      0.00000000      0.00000000      0.00000000      0.00000000      0.00000000      0.00000000
      46     -2.15250000      2.15250000      4.30500000    106.42000000      0.00000000      0.00000000      0.00000000     -0.00000000      0.00000000     -0.00000000
4
properties=Z:I:1:pos:R:3:masses:R:1:momenta:R:3:vasp_force:R:3 vasp_energy=-14.12697217 vasp_virial="-9.40606288       0.00000000       0.00000000       0.00000000      -9.50273302       0.00000000       0.00000000       0.00000000      -9.40606288" cutoff=-1.00000000 nneightol=1.20000000 pbc="T T T" Lattice="0.00000000       0.00000000       4.52000000      -2.26000000       4.52000000       2.26000000      -4.52000000       0.00000000       0.00000000"
      47      0.00000000      0.00000000      0.00000000    107.86820000      0.00000000      0.00000000      0.00000000      0.00000000      0.00000000      0.00000000
      47     -4.52000000      2.26000000      2.26000000    107.86820000      0.00000000      0.00000000      0.00000000      0.00000000      0.00000000     -0.00000000
      46     -2.26000000      0.00000000      2.26000000    106.42000000      0.00000000      0.00000000      0.00000000     -0.00000000      0.00000000     -0.00000000
      46     -2.26000000      2.26000000      4.52000000    106.42000000      0.00000000      0.00000000      0.00000000      0.00000000      0.00000000      0.00000000
4
properties=Z:I:1:pos:R:3:masses:R:1:momenta:R:3:vasp_force:R:3 vasp_energy=-14.30491400 vasp_virial="-11.51900222       0.00000000       0.00000000       0.00000000     -11.25575237      -0.00000000       0.00000000      -0.00000000     -11.51900222" cutoff=-1.00000000 nneightol=1.20000000 pbc="T T T" Lattice="0.00000000       0.00000000       4.73500000      -2.36750000       4.73500000       2.36750000      -4.73500000       0.00000000       0.00000000"
      47      0.00000000      0.00000000      0.00000000    107.86820000      0.00000000      0.00000000      0.00000000      0.00000000      0.00000000     -0.00000000
      46     -4.73500000      2.36750000      2.36750000    106.42000000      0.00000000      0.00000000      0.00000000      0.00000000      0.00000000      0.00000000
      46     -2.36750000      0.00000000      2.36750000    106.42000000      0.00000000      0.00000000      0.00000000      0.00000000      0.00000000     -0.00000000
      46     -2.36750000      2.36750000      4.73500000    106.42000000      0.00000000      0.00000000      0.00000000      0.00000000      0.00000000     -0.00000000
4
properties=Z:I:1:pos:R:3:masses:R:1:momenta:R:3:vasp_force:R:3 vasp_energy=-13.09675208 vasp_virial="-5.42877883       0.14744594       0.00000000       0.14744594      -5.42877883      -0.00000000       0.00000000      -0.00000000      -5.70917909" cutoff=-1.00000000 nneightol=1.20000000 pbc="T T T" Lattice="2.15250000       2.15250000       0.00000000      -2.15250000       2.15250000       4.30500000       2.15250000      -2.15250000       4.30500000"
      47      0.00000000      0.00000000      0.00000000    107.86820000      0.00000000      0.00000000      0.00000000      0.00000000      0.00000000      0.00000000
      47      0.00000000      2.15250000      2.15250000    107.86820000      0.00000000      0.00000000      0.00000000     -0.00000000     -0.00000000     -0.00000000
      47      2.15250000      0.00000000      2.15250000    107.86820000      0.00000000      0.00000000      0.00000000      0.00000000      0.00000000      0.00000000
      46      0.00000000      0.00000000      4.30500000    106.42000000      0.00000000      0.00000000      0.00000000      0.00000000      0.00000000      0.00000000
4
properties=Z:I:1:pos:R:3:masses:R:1:momenta:R:3:vasp_force:R:3 vasp_energy=-14.30773333 vasp_virial="-11.54975335       0.04698543       0.00000000       0.04698543     -11.54975335       0.00000000       0.00000000       0.00000000     -11.38962218" cutoff=-1.00000000 nneightol=1.20000000 pbc="T T T" Lattice="2.36750000       2.36750000       0.00000000      -2.36750000       2.36750000       4.73500000       2.36750000      -2.36750000       4.73500000"
      47      0.00000000      0.00000000      0.00000000    107.86820000      0.00000000      0.00000000      0.00000000      0.00000000      0.00000000     -0.00000000
      46      0.00000000      2.36750000      2.36750000    106.42000000      0.00000000      0.00000000      0.00000000      0.00000000      0.00000000      0.00000000
      46      2.36750000      0.00000000      2.36750000    106.42000000      0.00000000      0.00000000      0.00000000     -0.00000000     -0.00000000     -0.00000000
      46      0.00000000      0.00000000      4.73500000    106.42000000      0.00000000      0.00000000      0.00000000      0.00000000      0.00000000     -0.00000000
4
properties=Z:I:1:pos:R:3:masses:R:1:momenta:R:3:vasp_force:R:3 vasp_energy=-13.13818824 vasp_virial="-5.47143801       0.00000000       0.00000000       0.00000000      -5.47143801       0.00000000       0.00000000       0.00000000      -5.47143801" cutoff=-1.00000000 nneightol=1.20000000 pbc="T T T" Lattice="0.00000000       4.30500000       0.00000000      -4.30500000       0.00000000       0.00000000       0.00000000       0.00000000       4.30500000"
      47      0.00000000      0.00000000      0.00000000    107.86820000      0.00000000      0.00000000      0.00000000      0.00000000      0.00000000      0.00000000
      47      0.00000000      2.15250000      2.15250000    107.86820000      0.00000000      0.00000000      0.00000000      0.00000000      0.00000000      0.00000000
      47     -2.15250000      0.00000000      2.15250000    107.86820000      0.00000000      0.00000000      0.00000000      0.00000000      0.00000000      0.00000000
      46     -2.15250000      2.15250000      0.00000000    106.42000000      0.00000000      0.00000000      0.00000000      0.00000000      0.00000000      0.00000000
4
properties=Z:I:1:pos:R:3:masses:R:1:momenta:R:3:vasp_force:R:3 vasp_energy=-14.29921808 vasp_virial="-11.45691090       0.00000000       0.00000000       0.00000000     -11.45691090       0.00000000       0.00000000       0.00000000     -11.45691090" cutoff=-1.00000000 nneightol=1.20000000 pbc="T T T" Lattice="0.00000000       4.73500000       0.00000000      -4.73500000       0.00000000       0.00000000       0.00000000       0.00000000       4.73500000"
      47      0.00000000      0.00000000      0.00000000    107.86820000      0.00000000      0.00000000      0.00000000      0.00000000      0.00000000      0.00000000
      46      0.00000000      2.36750000      2.36750000    106.42000000      0.00000000      0.00000000      0.00000000      0.00000000      0.00000000      0.00000000
      46     -2.36750000      0.00000000      2.36750000    106.42000000      0.00000000      0.00000000      0.00000000      0.00000000      0.00000000      0.00000000
      46     -2.36750000      2.36750000      0.00000000    106.42000000      0.00000000      0.00000000      0.00000000      0.00000000      0.00000000      0.00000000
2
properties=Z:I:1:pos:R:3:masses:R:1:momenta:R:3:vasp_force:R:3 vasp_energy=-7.03740609 vasp_virial="-4.69509591       0.00000000      -0.00000000       0.00000000      -4.69509591      -0.00000000      -0.00000000      -0.00000000      -4.74110214" cutoff=-1.00000000 nneightol=1.20000000 pbc="T T T" Lattice="2.26000000       2.26000000       0.00000000      -2.26000000       2.26000000       0.00000000       0.00000000       0.00000000       4.52000000"
      47      0.00000000      0.00000000      0.00000000    107.86820000      0.00000000      0.00000000      0.00000000     -0.00000000      0.00000000      0.00000000
      46      0.00000000      2.26000000      2.26000000    106.42000000      0.00000000      0.00000000      0.00000000      0.00000000     -0.00000000      0.00000000
3
properties=Z:I:1:pos:R:3:masses:R:1:momenta:R:3:vasp_force:R:3 vasp_energy=-10.10854497 vasp_virial="-5.43499265       0.06771034       0.06771034       0.06771034      -5.43499265      -0.06771034       0.06771034      -0.06771034      -5.43499265" cutoff=-1.00000000 nneightol=1.20000000 pbc="T T T" Lattice="2.18833000       2.18833000       0.00000000      -4.37667000       4.37667000       4.37667000       0.00000000      -2.18833000       2.18833000"
      47      0.00000000      0.00000000      0.00000000    107.86820000      0.00000000      0.00000000      0.00000000      0.17094700     -0.17094700     -0.17094700
      47      0.00000000      2.18833000      2.18833000    107.86820000      0.00000000      0.00000000      0.00000000     -0.17094700      0.17094700      0.17094700
      46     -2.18833000      2.18833000      4.37667000    106.42000000      0.00000000      0.00000000      0.00000000     -0.00000000      0.00000000      0.00000000
3
properties=Z:I:1:pos:R:3:masses:R:1:momenta:R:3:vasp_force:R:3 vasp_energy=-10.67975617 vasp_virial="-8.28308206       0.02533697       0.02533697       0.02533697      -8.28308206      -0.02533697       0.02533697      -0.02533697      -8.28308206" cutoff=-1.00000000 nneightol=1.20000000 pbc="T T T" Lattice="2.33167000       2.33167000       0.00000000      -4.66333000       4.66333000       4.66333000       0.00000000      -2.33167000       2.33167000"
      47      0.00000000      0.00000000      0.00000000    107.86820000      0.00000000      0.00000000      0.00000000      0.00000000     -0.00000000      0.00000000
      46     -0.00000000      2.33167000      2.33167000    106.42000000      0.00000000      0.00000000      0.00000000     -0.07377100      0.07377100      0.07377100
      46     -2.33167000      2.33167000      4.66333000    106.42000000      0.00000000      0.00000000      0.00000000      0.07377100     -0.07377100     -0.07377100
1
properties=Z:I:1:pos:R:3:masses:R:1:momenta:R:3:vasp_force:R:3 vasp_energy=-2.67687644 vasp_virial="0.48128481       0.00000000      -0.00000000       0.00000000       0.48128481       0.00000000      -0.00000000       0.00000000       0.48128481" cutoff=-1.00000000 nneightol=1.20000000 pbc="T T T" Lattice="1.62312000      -1.62312000       1.62312000       1.62312000       1.62312000       1.62312000      -1.62312000       1.62312000       1.62312000"
      47      0.00000000      0.00000000      0.00000000    107.86820000      0.00000000      0.00000000      0.00000000      0.00000000     -0.00000000      0.00000000
1
properties=Z:I:1:pos:R:3:masses:R:1:momenta:R:3:vasp_force:R:3 vasp_energy=-3.53136629 vasp_virial="-3.03283694      -0.00000000       0.00000000      -0.00000000      -3.03283694       0.00000000       0.00000000       0.00000000      -3.03283694" cutoff=-1.00000000 nneightol=1.20000000 pbc="T T T" Lattice="1.96441000      -1.96441000       1.96441000       1.96441000       1.96441000       1.96441000      -1.96441000       1.96441000       1.96441000"
      46      0.00000000      0.00000000      0.00000000    106.42000000      0.00000000      0.00000000      0.00000000      0.00000000     -0.00000000      0.00000000
3
properties=Z:I:1:pos:R:3:masses:R:1:momenta:R:3:vasp_force:R:3 vasp_energy=-10.16800911 vasp_virial="-5.32964580       0.05925635      -0.00000392       0.05925635      -5.32966228       0.00000392      -0.00000392       0.00000392      -5.36329263" cutoff=-1.00000000 nneightol=1.20000000 pbc="T T T" Lattice="2.18833000       2.18833000       0.00000000      -2.18833000       4.37667000       2.18833000       0.00000000       0.00000000       4.37667000"
      47      0.00000000      0.00000000      0.00000000    107.86820000      0.00000000      0.00000000      0.00000000      0.08864300     -0.08864400      0.00000000
      47      0.00000000      2.18833000      2.18833000    107.86820000      0.00000000      0.00000000      0.00000000     -0.08864300      0.08864400     -0.00000000
      46      0.00000000      4.37667000      4.37667000    106.42000000      0.00000000      0.00000000      0.00000000     -0.00000000     -0.00000000      0.00000000
2
properties=Z:I:1:pos:R:3:masses:R:1:momenta:R:3:vasp_force:R:3 vasp_energy=-7.00690292 vasp_virial="-4.69256636      -0.00000000       0.00000000      -0.00000000      -4.64444986      -0.07456397       0.00000000      -0.07456397      -4.64444986" cutoff=-1.00000000 nneightol=1.20000000 pbc="T T T" Lattice="1.79376000       1.79376000      -1.79376000       0.00000000       3.58753000       3.58753000       1.79376000      -1.79376000       1.79376000"
      47      0.00000000      0.00000000      0.00000000    107.86820000      0.00000000      0.00000000      0.00000000      0.00000000      0.00000000     -0.00000000
      46      1.79376000      1.79376000      1.79376000    106.42000000      0.00000000      0.00000000      0.00000000     -0.00000000     -0.00000000      0.00000000
2
properties=Z:I:1:pos:R:3:masses:R:1:momenta:R:3:vasp_force:R:3 vasp_energy=-7.03340909 vasp_virial="-4.59023930      -0.00000000      -0.00000000      -0.00000000      -4.59023930       0.00000000      -0.00000000       0.00000000      -4.59023930" cutoff=-1.00000000 nneightol=1.20000000 pbc="T T T" Lattice="0.00000000       3.58753000       0.00000000      -3.58753000       0.00000000       0.00000000       0.00000000       0.00000000       3.58753000"