  30
   1   1
     5.562541227022578    -0.098668731805476     0.028474356068863
    -0.112033991277756     5.509823771412234     0.028633392827644
    -0.057952645695311     0.074202347954076     6.213983830184839
   1   2
    -0.579484353254817    -0.570664197519624    -0.014236715562868
    -0.570523788476370    -0.583081599708527     0.004777732459021
    -0.011248819958624     0.003091317372253    -0.059051649374733
   1   3
    -0.042238687695121    -0.019874555486755     0.020223800661920
    -0.019412834822070    -0.051777483990459    -0.011034233764563
     0.023192090151623    -0.012610942053560    -0.013322075625146
   1   4
    -0.042241679551543    -0.019869189191944     0.020224230547728
    -0.019400971843868    -0.051757517307706    -0.011028750088015
     0.023196476377017    -0.012613545535167    -0.013321105002812
   1   5
    -0.579473784850344    -0.570671481101629    -0.014233434026398
    -0.570493384039835    -0.583064645046077     0.004791342218381
    -0.011247462817331     0.003081581435592    -0.059052144589305
   1   6
    -0.832763514822518    -0.015179750447238     0.895374653899491
    -0.010566476221584     0.078787854257390     0.007136602546352
     0.893318021856528     0.011365881660658    -0.802811644211911
   1   7
     0.079240614932517    -0.009887924808879    -0.006109406886828
    -0.017976786209448    -0.800939302885346    -0.848457426565080
    -0.021308712270933    -0.847109343053059    -0.754728497419550
   1   8
     0.002021298274956    -0.028533552039088     0.001288624412755
    -0.012288347631057    -0.053688331653692    -0.013489376135207
     0.013586715861851    -0.017078330936373     0.004859436759079
   1   9
    -0.599035141816348     0.692829802392029    -0.004637845178327
     0.696918114571463    -0.615603785276365     0.004281575237554
     0.006680032729903    -0.010969974376666     0.079413011890599
   1  10
    -0.046154333822075    -0.012463625785660     0.002362024102410
    -0.026990343102339     0.000566136676759    -0.002170464584818
     0.020852638991162    -0.008253051369079     0.014151441443873
   1  11
     0.085798652611413     0.005438598698807     0.000087252529099
    -0.008780375739378    -0.777314974003555     0.815861226275914
     0.007473223546577     0.814258995130625    -0.723308243858487
   1  12
    -0.811321198479345    -0.012026704766923    -0.862172744746043
    -0.002122955634072     0.074219680365421    -0.003302543963485
    -0.858921238000849    -0.011416363359559    -0.770436090556193
   1  13
    -0.005451224083404     0.006153923153452    -0.041620688175219
    -0.009027694833914    -0.006351639194721     0.030276582771636
    -0.029184473502068     0.019753306778617    -0.003598754045591
   1  14
    -0.006764003940076    -0.003331046546307     0.027082946157848
     0.003744936359651     0.001714432960098    -0.025021059307691
     0.017762191855603    -0.027155017838909    -0.003163296191207
   1  15
     0.003350991465463    -0.015551257623241    -0.009458643585613
     0.000688330680842     0.007218331477646     0.010253332503056
    -0.005012891929451     0.022430551351786     0.012150448578423
   1  16
    -0.030320106420596     0.012913751026156    -0.041764840942148
     0.014464551641323    -0.012165160061758    -0.025665012184212
    -0.037586791489708    -0.009949831971250    -0.024596083996578
   1  17
     0.010946827356787     0.001035180044676     0.018031993187690
     0.005813379748942    -0.001046899987276     0.019402381636985
     0.012072877815173     0.010599805664671    -0.052678125325666
   1  18
     0.010955793828566     0.001036818261669     0.018034671612105
     0.005819215250545    -0.001049396463563     0.019401058983287
     0.012076615543411     0.010593211307497    -0.052645397310699
   1  19
    -0.030309040805927     0.012912205319297    -0.041766682644666
     0.014467027318723    -0.012179675345152    -0.025663600443562
    -0.037582317699151    -0.009956033267527    -0.024597781359986
   1  20
    -0.017234544002251     0.037212329697784     0.003504458698255
     0.024374281104321    -0.031758781684437     0.044417521443979
    -0.004371739275498     0.050491774311463    -0.018966133473964
   1  21
    -0.005450321768265     0.006145151396020    -0.041592962988041
    -0.009043848409894    -0.006341181646488     0.030251438192371
    -0.029205874314267     0.019758537342207    -0.003600295665747
   1  22
    -0.812301265181983    -0.012017861397634    -0.863276840388351
    -0.002085605641085     0.074323992909147    -0.003294689130922
    -0.860027441089616    -0.011416305238044    -0.771397255060277
   1  23
     0.085868495341245     0.005385391988705     0.000147178512536
    -0.008840230439137    -0.777783764080184     0.816311854915592
     0.007530800006938     0.814709516716098    -0.723616729799268
   1  24
     0.003368847951064    -0.015536710002653    -0.009443068098597
     0.000675527321013     0.007216880432157     0.010210327446431
    -0.005030770875760     0.022423752053031     0.012143436925746
   1  25
    -0.006758605214240    -0.003348509849179     0.027107212069287
     0.003758543680638     0.001728034538526    -0.025052067935471
     0.017761697440792    -0.027166572790081    -0.003176224774877
   1  26
     0.079161209132577    -0.009957217109892    -0.006163164489862
    -0.018059764528395    -0.800062618635214    -0.847498293651193
    -0.021357731897905    -0.846154753848349    -0.753932773455419
   1  27
    -0.832758067436822    -0.015153287062638     0.895514581345892
    -0.010565974264530     0.078845323137377     0.007095843217105
     0.893493154026885     0.011316518346500    -0.803092135268340
   1  28
    -0.046206488772763    -0.012487991765284     0.002364581850589
    -0.027016820105833     0.000569362904879    -0.002193315143474
     0.020847662987216    -0.008247739004180     0.014138312965182
   1  29
    -0.599009441904992     0.692711911169447    -0.004645621876285
     0.696784219665482    -0.615363522312678     0.004277513342615
     0.006614238653385    -0.010906174457407     0.079411617044588
   1  30
     0.002025834582259    -0.028550335155051     0.001297295726073
    -0.012278118927694    -0.053684237772440    -0.013506940876899
     0.013579305075039    -0.017075670148477     0.004842285987837
   2   1
    -0.579473784850344    -0.570671481101629    -0.014233434026398
    -0.570493384039835    -0.583064645046077     0.004791342218381
    -0.011247462817331     0.003081581435592    -0.059052144589305
   2   2
     5.562541227022578    -0.098668731805476     0.028474356068863
    -0.112033991277756     5.509823771412237     0.028633392827644
    -0.057952645695312     0.074202347954077     6.213983830184839
   2   3
    -0.579484353254817    -0.570664197519624    -0.014236715562868
    -0.570523788476370    -0.583081599708527     0.004777732459021
    -0.011248819958624     0.003091317372253    -0.059051649374733
   2   4
    -0.042238687695121    -0.019874555486755     0.020223800661920
    -0.019412834822070    -0.051777483990459    -0.011034233764563
     0.023192090151623    -0.012610942053560    -0.013322075625146
   2   5
    -0.042241679551543    -0.019869189191944     0.020224230547728
    -0.019400971843868    -0.051757517307706    -0.011028750088015
     0.023196476377017    -0.012613545535167    -0.013321105002812
   2   6
    -0.046154333822075    -0.012463625785660     0.002362024102410
    -0.026990343102339     0.000566136676759    -0.002170464584818
     0.020852638991162    -0.008253051369079     0.014151441443873
   2   7
    -0.832763514822518    -0.015179750447238     0.895374653899491
    -0.010566476221584     0.078787854257390     0.007136602546352
     0.893318021856528     0.011365881660658    -0.802811644211911
   2   8
     0.079240614932517    -0.009887924808879    -0.006109406886828
    -0.017976786209448    -0.800939302885346    -0.848457426565080
    -0.021308712270933    -0.847109343053060    -0.754728497419550
   2   9
     0.002021298274956    -0.028533552039088     0.001288624412755
    -0.012288347631057    -0.053688331653692    -0.013489376135207
     0.013586715861851    -0.017078330936373     0.004859436759079
   2  10
    -0.599035141816348     0.692829802392029    -0.004637845178327
     0.696918114571463    -0.615603785276365     0.004281575237554
     0.006680032729903    -0.010969974376666     0.079413011890599
   2  11
     0.003350991465463    -0.015551257623241    -0.009458643585613
     0.000688330680842     0.007218331477646     0.010253332503056
    -0.005012891929451     0.022430551351786     0.012150448578423
   2  12
     0.085798652611413     0.005438598698807     0.000087252529099
    -0.008780375739378    -0.777314974003556     0.815861226275914
     0.007473223546577     0.814258995130625    -0.723308243858487
   2  13
    -0.811321198479345    -0.012026704766923    -0.862172744746043
    -0.002122955634072     0.074219680365421    -0.003302543963485
    -0.858921238000849    -0.011416363359559    -0.770436090556193
   2  14
    -0.005451224083404     0.006153923153452    -0.041620688175219
    -0.009027694833914    -0.006351639194721     0.030276582771636
    -0.029184473502068     0.019753306778617    -0.003598754045591
   2  15
    -0.006764003940076    -0.003331046546307     0.027082946157848
     0.003744936359651     0.001714432960098    -0.025021059307691
     0.017762191855603    -0.027155017838909    -0.003163296191207
   2  16
    -0.017234544002251     0.037212329697784     0.003504458698255
     0.024374281104321    -0.031758781684437     0.044417521443979
    -0.004371739275498     0.050491774311463    -0.018966133473964
   2  17
    -0.030320106420596     0.012913751026156    -0.041764840942148
     0.014464551641323    -0.012165160061758    -0.025665012184212
    -0.037586791489708    -0.009949831971250    -0.024596083996578
   2  18
     0.010946827356787     0.001035180044676     0.018031993187690
     0.005813379748942    -0.001046899987276     0.019402381636985
     0.012072877815173     0.010599805664671    -0.052678125325666
   2  19
     0.010955793828566     0.001036818261669     0.018034671612105
     0.005819215250545    -0.001049396463563     0.019401058983287
     0.012076615543411     0.010593211307497    -0.052645397310699
   2  20
    -0.030309040805927     0.012912205319297    -0.041766682644666
     0.014467027318723    -0.012179675345152    -0.025663600443562
    -0.037582317699151    -0.009956033267527    -0.024597781359986
   2  21
    -0.006758605214240    -0.003348509849179     0.027107212069287
     0.003758543680638     0.001728034538526    -0.025052067935471
     0.017761697440792    -0.027166572790081    -0.003176224774877
   2  22
    -0.005450321768265     0.006145151396020    -0.041592962988041
    -0.009043848409894    -0.006341181646488     0.030251438192371
    -0.029205874314267     0.019758537342207    -0.003600295665747
   2  23
    -0.812301265181983    -0.012017861397634    -0.863276840388351
    -0.002085605641085     0.074323992909147    -0.003294689130922
    -0.860027441089616    -0.011416305238043    -0.771397255060277
   2  24
     0.085868495341245     0.005385391988705     0.000147178512536
    -0.008840230439137    -0.777783764080184     0.816311854915592
     0.007530800006938     0.814709516716098    -0.723616729799268
   2  25
     0.003368847951064    -0.015536710002653    -0.009443068098597
     0.000675527321013     0.007216880432157     0.010210327446431
    -0.005030770875760     0.022423752053031     0.012143436925746
   2  26
     0.002025834582259    -0.028550335155051     0.001297295726073
    -0.012278118927694    -0.053684237772440    -0.013506940876899
     0.013579305075039    -0.017075670148477     0.004842285987837
   2  27
     0.079161209132577    -0.009957217109892    -0.006163164489862
    -0.018059764528395    -0.800062618635214    -0.847498293651193
    -0.021357731897905    -0.846154753848349    -0.753932773455419
   2  28
    -0.832758067436822    -0.015153287062638     0.895514581345892
    -0.010565974264530     0.078845323137377     0.007095843217105
     0.893493154026885     0.011316518346500    -0.803092135268340
   2  29
    -0.046206488772763    -0.012487991765284     0.002364581850589
    -0.027016820105833     0.000569362904879    -0.002193315143474
     0.020847662987216    -0.008247739004180     0.014138312965182
   2  30
    -0.599009441904992     0.692711911169448    -0.004645621876285
     0.696784219665482    -0.615363522312678     0.004277513342615
     0.006614238653385    -0.010906174457407     0.079411617044588
   3   1
    -0.042241679551543    -0.019869189191944     0.020224230547728
    -0.019400971843868    -0.051757517307706    -0.011028750088015
     0.023196476377017    -0.012613545535167    -0.013321105002812
   3   2
    -0.579473784850344    -0.570671481101629    -0.014233434026398
    -0.570493384039835    -0.583064645046077     0.004791342218381
    -0.011247462817331     0.003081581435592    -0.059052144589305
   3   3
     5.562541227022578    -0.098668731805476     0.028474356068863
    -0.112033991277756     5.509823771412237     0.028633392827644
    -0.057952645695312     0.074202347954077     6.213983830184839
   3   4
    -0.579484353254817    -0.570664197519624    -0.014236715562868
    -0.570523788476370    -0.583081599708527     0.004777732459021
    -0.011248819958624     0.003091317372253    -0.059051649374733
   3   5
    -0.042238687695121    -0.019874555486755     0.020223800661920
    -0.019412834822070    -0.051777483990459    -0.011034233764563
     0.023192090151623    -0.012610942053560    -0.013322075625146
   3   6
    -0.599035141816348     0.692829802392029    -0.004637845178327
     0.696918114571463    -0.615603785276365     0.004281575237554
     0.006680032729903    -0.010969974376666     0.079413011890599
   3   7
    -0.046154333822075    -0.012463625785660     0.002362024102410
    -0.026990343102339     0.000566136676759    -0.002170464584818
     0.020852638991162    -0.008253051369079     0.014151441443873
   3   8
    -0.832763514822518    -0.015179750447238     0.895374653899491
    -0.010566476221584     0.078787854257390     0.007136602546352
     0.893318021856528     0.011365881660658    -0.802811644211911
   3   9
     0.079240614932517    -0.009887924808879    -0.006109406886828
    -0.017976786209448    -0.800939302885346    -0.848457426565080
    -0.021308712270933    -0.847109343053060    -0.754728497419550
   3  10
     0.002021298274956    -0.028533552039088     0.001288624412755
    -0.012288347631057    -0.053688331653692    -0.013489376135207
     0.013586715861851    -0.017078330936373     0.004859436759079
   3  11
    -0.006764003940076    -0.003331046546307     0.027082946157848
     0.003744936359651     0.001714432960098    -0.025021059307691
     0.017762191855603    -0.027155017838909    -0.003163296191207
   3  12
     0.003350991465463    -0.015551257623241    -0.009458643585613
     0.000688330680842     0.007218331477646     0.010253332503056
    -0.005012891929451     0.022430551351786     0.012150448578423
   3  13
     0.085798652611413     0.005438598698807     0.000087252529099
    -0.008780375739378    -0.777314974003556     0.815861226275914
     0.007473223546577     0.814258995130625    -0.723308243858487
   3  14
    -0.811321198479345    -0.012026704766923    -0.862172744746043
    -0.002122955634072     0.074219680365421    -0.003302543963485
    -0.858921238000849    -0.011416363359559    -0.770436090556193
   3  15
    -0.005451224083404     0.006153923153452    -0.041620688175219
    -0.009027694833914    -0.006351639194721     0.030276582771636
    -0.029184473502068     0.019753306778617    -0.003598754045591
   3  16
    -0.030309040805927     0.012912205319297    -0.041766682644666
     0.014467027318723    -0.012179675345152    -0.025663600443562
    -0.037582317699151    -0.009956033267527    -0.024597781359986
   3  17
    -0.017234544002251     0.037212329697784     0.003504458698255
     0.024374281104321    -0.031758781684437     0.044417521443979
    -0.004371739275498     0.050491774311463    -0.018966133473964
   3  18
    -0.030320106420596     0.012913751026156    -0.041764840942148
     0.014464551641323    -0.012165160061758    -0.025665012184212
    -0.037586791489708    -0.009949831971250    -0.024596083996578
   3  19
     0.010946827356787     0.001035180044676     0.018031993187690
     0.005813379748942    -0.001046899987276     0.019402381636985
     0.012072877815173     0.010599805664671    -0.052678125325666
   3  20
     0.010955793828566     0.001036818261669     0.018034671612105
     0.005819215250545    -0.001049396463563     0.019401058983287
     0.012076615543411     0.010593211307497    -0.052645397310699
   3  21
     0.003368847951064    -0.015536710002653    -0.009443068098597
     0.000675527321013     0.007216880432157     0.010210327446431
    -0.005030770875760     0.022423752053031     0.012143436925746
   3  22
    -0.006758605214240    -0.003348509849179     0.027107212069287
     0.003758543680638     0.001728034538526    -0.025052067935471
     0.017761697440792    -0.027166572790081    -0.003176224774877
   3  23
    -0.005450321768265     0.006145151396020    -0.041592962988041
    -0.009043848409894    -0.006341181646488     0.030251438192371
    -0.029205874314267     0.019758537342207    -0.003600295665747
   3  24
    -0.812301265181983    -0.012017861397634    -0.863276840388351
    -0.002085605641085     0.074323992909147    -0.003294689130922
    -0.860027441089616    -0.011416305238043    -0.771397255060277
   3  25
     0.085868495341245     0.005385391988705     0.000147178512536
    -0.008840230439137    -0.777783764080184     0.816311854915592
     0.007530800006938     0.814709516716098    -0.723616729799268
   3  26
    -0.599009441904992     0.692711911169448    -0.004645621876285
     0.696784219665482    -0.615363522312678     0.004277513342615
     0.006614238653385    -0.010906174457407     0.079411617044588
   3  27
     0.002025834582259    -0.028550335155051     0.001297295726073
    -0.012278118927694    -0.053684237772440    -0.013506940876899
     0.013579305075039    -0.017075670148477     0.004842285987837
   3  28
     0.079161209132577    -0.009957217109892    -0.006163164489862
    -0.018059764528395    -0.800062618635214    -0.847498293651193
    -0.021357731897905    -0.846154753848349    -0.753932773455419
   3  29
    -0.832758067436822    -0.015153287062638     0.895514581345892
    -0.010565974264530     0.078845323137377     0.007095843217105
     0.893493154026885     0.011316518346500    -0.803092135268340
   3  30
    -0.046206488772763    -0.012487991765284     0.002364581850589
    -0.027016820105833     0.000569362904879    -0.002193315143474
     0.020847662987216    -0.008247739004180     0.014138312965182
   4   1
    -0.042238687695121    -0.019874555486755     0.020223800661920
    -0.019412834822070    -0.051777483990459    -0.011034233764563
     0.023192090151623    -0.012610942053560    -0.013322075625146
   4   2
    -0.042241679551543    -0.019869189191944     0.020224230547728
    -0.019400971843868    -0.051757517307706    -0.011028750088015
     0.023196476377017    -0.012613545535167    -0.013321105002812
   4   3
    -0.579473784850344    -0.570671481101629    -0.014233434026398
    -0.570493384039835    -0.583064645046077     0.004791342218381
    -0.011247462817331     0.003081581435592    -0.059052144589305
   4   4
     5.562541227022578    -0.098668731805476     0.028474356068863
    -0.112033991277756     5.509823771412237     0.028633392827644
    -0.057952645695312     0.074202347954077     6.213983830184839
   4   5
    -0.579484353254817    -0.570664197519624    -0.014236715562868
    -0.570523788476370    -0.583081599708527     0.004777732459021
    -0.011248819958624     0.003091317372253    -0.059051649374733
   4   6
     0.002021298274956    -0.028533552039088     0.001288624412755
    -0.012288347631057    -0.053688331653692    -0.013489376135207
     0.013586715861851    -0.017078330936373     0.004859436759079
   4   7
    -0.599035141816348     0.692829802392029    -0.004637845178327
     0.696918114571463    -0.615603785276365     0.004281575237554
     0.006680032729903    -0.010969974376666     0.079413011890599
   4   8
    -0.046154333822075    -0.012463625785660     0.002362024102410
    -0.026990343102339     0.000566136676759    -0.002170464584818
     0.020852638991162    -0.008253051369079     0.014151441443873
   4   9
    -0.832763514822518    -0.015179750447238     0.895374653899491
    -0.010566476221584     0.078787854257390     0.007136602546352
     0.893318021856528     0.011365881660658    -0.802811644211911
   4  10
     0.079240614932517    -0.009887924808879    -0.006109406886828
    -0.017976786209448    -0.800939302885346    -0.848457426565080
    -0.021308712270933    -0.847109343053060    -0.754728497419550
   4  11
    -0.005451224083404     0.006153923153452    -0.041620688175219
    -0.009027694833914    -0.006351639194721     0.030276582771636
    -0.029184473502068     0.019753306778617    -0.003598754045591
   4  12
    -0.006764003940076    -0.003331046546307     0.027082946157848
     0.003744936359651     0.001714432960098    -0.025021059307691
     0.017762191855603    -0.027155017838909    -0.003163296191207
   4  13
     0.003350991465463    -0.015551257623241    -0.009458643585613
     0.000688330680842     0.007218331477646     0.010253332503056
    -0.005012891929451     0.022430551351786     0.012150448578423
   4  14
     0.085798652611413     0.005438598698807     0.000087252529099
    -0.008780375739378    -0.777314974003556     0.815861226275914
     0.007473223546577     0.814258995130625    -0.723308243858487
   4  15
    -0.811321198479345    -0.012026704766923    -0.862172744746043
    -0.002122955634072     0.074219680365421    -0.003302543963485
    -0.858921238000849    -0.011416363359559    -0.770436090556193
   4  16
     0.010955793828566     0.001036818261669     0.018034671612105
     0.005819215250545    -0.001049396463563     0.019401058983287
     0.012076615543411     0.010593211307497    -0.052645397310699
   4  17
    -0.030309040805927     0.012912205319297    -0.041766682644666
     0.014467027318723    -0.012179675345152    -0.025663600443562
    -0.037582317699151    -0.009956033267527    -0.024597781359986
   4  18
    -0.017234544002251     0.037212329697784     0.003504458698255
     0.024374281104321    -0.031758781684437     0.044417521443979
    -0.004371739275498     0.050491774311463    -0.018966133473964
   4  19
    -0.030320106420596     0.012913751026156    -0.041764840942148
     0.014464551641323    -0.012165160061758    -0.025665012184212
    -0.037586791489708    -0.009949831971250    -0.024596083996578
   4  20
     0.010946827356787     0.001035180044676     0.018031993187690
     0.005813379748942    -0.001046899987276     0.019402381636985
     0.012072877815173     0.010599805664671    -0.052678125325666
   4  21
     0.085868495341245     0.005385391988705     0.000147178512536
    -0.008840230439137    -0.777783764080184     0.816311854915592
     0.007530800006938     0.814709516716098    -0.723616729799268
   4  22
     0.003368847951064    -0.015536710002653    -0.009443068098597
     0.000675527321013     0.007216880432157     0.010210327446431
    -0.005030770875760     0.022423752053031     0.012143436925746
   4  23
    -0.006758605214240    -0.003348509849179     0.027107212069287
     0.003758543680638     0.001728034538526    -0.025052067935471
     0.017761697440792    -0.027166572790081    -0.003176224774877
   4  24
    -0.005450321768265     0.006145151396020    -0.041592962988041
    -0.009043848409894    -0.006341181646488     0.030251438192371
    -0.029205874314267     0.019758537342207    -0.003600295665747
   4  25
    -0.812301265181983    -0.012017861397634    -0.863276840388351
    -0.002085605641085     0.074323992909147    -0.003294689130922
    -0.860027441089616    -0.011416305238043    -0.771397255060277
   4  26
    -0.046206488772763    -0.012487991765284     0.002364581850589
    -0.027016820105833     0.000569362904879    -0.002193315143474
     0.020847662987216    -0.008247739004180     0.014138312965182
   4  27
    -0.599009441904992     0.692711911169448    -0.004645621876285
     0.696784219665482    -0.615363522312678     0.004277513342615
     0.006614238653385    -0.010906174457407     0.079411617044588
   4  28
     0.002025834582259    -0.028550335155051     0.001297295726073
    -0.012278118927694    -0.053684237772440    -0.013506940876899
     0.013579305075039    -0.017075670148477     0.004842285987837
   4  29
     0.079161209132577    -0.009957217109892    -0.006163164489862
    -0.018059764528395    -0.800062618635214    -0.847498293651193
    -0.021357731897905    -0.846154753848349    -0.753932773455419
   4  30
    -0.832758067436822    -0.015153287062638     0.895514581345892
    -0.010565974264530     0.078845323137377     0.007095843217105
     0.893493154026885     0.011316518346500    -0.803092135268340
   5   1
    -0.579484353254817    -0.570664197519624    -0.014236715562868
    -0.570523788476370    -0.583081599708527     0.004777732459021
    -0.011248819958624     0.003091317372253    -0.059051649374733
   5   2
    -0.042238687695121    -0.019874555486755     0.020223800661920
    -0.019412834822070    -0.051777483990459    -0.011034233764563
     0.023192090151623    -0.012610942053560    -0.013322075625146
   5   3
    -0.042241679551543    -0.019869189191944     0.020224230547728
    -0.019400971843868    -0.051757517307706    -0.011028750088015
     0.023196476377017    -0.012613545535167    -0.013321105002812
   5   4
    -0.579473784850344    -0.570671481101629    -0.014233434026398
    -0.570493384039835    -0.583064645046077     0.004791342218381
    -0.011247462817331     0.003081581435592    -0.059052144589305
   5   5
     5.562541227022578    -0.098668731805476     0.028474356068863
    -0.112033991277756     5.509823771412237     0.028633392827644
    -0.057952645695312     0.074202347954077     6.213983830184839
   5   6
     0.079240614932517    -0.009887924808879    -0.006109406886828
    -0.017976786209448    -0.800939302885346    -0.848457426565080
    -0.021308712270933    -0.847109343053060    -0.754728497419550
   5   7
     0.002021298274956    -0.028533552039088     0.001288624412755
    -0.012288347631057    -0.053688331653692    -0.013489376135207
     0.013586715861851    -0.017078330936373     0.004859436759079
   5   8
    -0.599035141816348     0.692829802392029    -0.004637845178327
     0.696918114571463    -0.615603785276365     0.004281575237554
     0.006680032729903    -0.010969974376666     0.079413011890599
   5   9
    -0.046154333822075    -0.012463625785660     0.002362024102410
    -0.026990343102339     0.000566136676759    -0.002170464584818
     0.020852638991162    -0.008253051369079     0.014151441443873
   5  10
    -0.832763514822518    -0.015179750447238     0.895374653899491
    -0.010566476221584     0.078787854257390     0.007136602546352
     0.893318021856528     0.011365881660658    -0.802811644211911
   5  11
    -0.811321198479345    -0.012026704766923    -0.862172744746043
    -0.002122955634072     0.074219680365421    -0.003302543963485
    -0.858921238000849    -0.011416363359559    -0.770436090556193
   5  12
    -0.005451224083404     0.006153923153452    -0.041620688175219
    -0.009027694833914    -0.006351639194721     0.030276582771636
    -0.029184473502068     0.019753306778617    -0.003598754045591
   5  13
    -0.006764003940076    -0.003331046546307     0.027082946157848
     0.003744936359651     0.001714432960098    -0.025021059307691
     0.017762191855603    -0.027155017838909    -0.003163296191207
   5  14
     0.003350991465463    -0.015551257623241    -0.009458643585613
     0.000688330680842     0.007218331477646     0.010253332503056
    -0.005012891929451     0.022430551351786     0.012150448578423
   5  15
     0.085798652611413     0.005438598698807     0.000087252529099
    -0.008780375739378    -0.777314974003556     0.815861226275914
     0.007473223546577     0.814258995130625    -0.723308243858487
   5  16
     0.010946827356787     0.001035180044676     0.018031993187690
     0.005813379748942    -0.001046899987276     0.019402381636985
     0.012072877815173     0.010599805664671    -0.052678125325666
   5  17
     0.010955793828566     0.001036818261669     0.018034671612105
     0.005819215250545    -0.001049396463563     0.019401058983287
     0.012076615543411     0.010593211307497    -0.052645397310699
   5  18
    -0.030309040805927     0.012912205319297    -0.041766682644666
     0.014467027318723    -0.012179675345152    -0.025663600443562
    -0.037582317699151    -0.009956033267527    -0.024597781359986
   5  19
    -0.017234544002251     0.037212329697784     0.003504458698255
     0.024374281104321    -0.031758781684437     0.044417521443979
    -0.004371739275498     0.050491774311463    -0.018966133473964
   5  20
    -0.030320106420596     0.012913751026156    -0.041764840942148
     0.014464551641323    -0.012165160061758    -0.025665012184212
    -0.037586791489708    -0.009949831971250    -0.024596083996578
   5  21
    -0.812301265181983    -0.012017861397634    -0.863276840388351
    -0.002085605641085     0.074323992909147    -0.003294689130922
    -0.860027441089616    -0.011416305238043    -0.771397255060277
   5  22
     0.085868495341245     0.005385391988705     0.000147178512536
    -0.008840230439137    -0.777783764080184     0.816311854915592
     0.007530800006938     0.814709516716098    -0.723616729799268
   5  23
     0.003368847951064    -0.015536710002653    -0.009443068098597
     0.000675527321013     0.007216880432157     0.010210327446431