30
Lattice="-2.0541941474727103 -2.0758293597172535 8.168699666504583 -2.076273156403035 -8.257579681013095 -2.0362913779511067 6.1458049001130615 0.0162968859193171 6.126413711578044" Properties=Z:I:1:pos:R:3:vasp_force:R:3 uuid=a4b9ef5b-c357-4f0e-8eaa-06068ebfc84b vasp_virial="0.38823382942976015 -0.2833532758202324 0.0011147880644305592 -0.2833532758202324 -0.27188549947048146 0.3905086433351489 0.0011147880644305592 0.3905086433351489 -0.3806791207496481" vasp_energy=-95.02459497 pbc="T T T"
      46       4.07436009      -6.18210832       6.13996042       0.01368800       0.01196600      -0.05819200 
      46      -2.06801659      -6.20190051       8.17163114      -0.00237100      -0.00303600       0.00072700 
      46      -0.01276215      -4.13195932       8.17043223      -0.00012700      -0.00033600       0.00033200 
      46       2.04249230      -2.06201814       8.16923331      -0.00013000      -0.00034000       0.00032900 
      46       2.02147358      -8.24965663       6.13174302      -0.00241900      -0.00308700       0.00070800 
      47       2.03978788      -6.19771110       8.13903326      -0.01304600      -0.00035400       0.00824000 
      47       4.09504232      -4.12776992       8.13783434      -0.00204800       0.00570600       0.00345400 
      47       0.00449186      -2.07412562       2.01022171      -0.00255200      -0.00044200      -0.00172800 
      47       0.00555215      -2.08001379      10.17772247      -0.00222200      -0.00013000      -0.00240200 
      47      -0.01546656      -8.26765229       8.14023217      -0.00277200      -0.00036000      -0.00178600 
      47      -2.07676156      -8.25796406       2.01109257      -0.00034000      -0.00978500       0.01076500 
      47      -0.02150712      -6.18802287       2.00989366       0.00578200       0.00021500       0.00707100 
      47      -0.02044682      -6.19391104      10.17739441      -0.00022200      -0.00023500       0.00183000 
      47       2.03480762      -4.12396986      10.17619549      -0.00063300       0.00020500       0.00185400 
      47       4.09006206      -2.05402867      10.17499658      -0.00040200      -0.00027900       0.00170900 
      47      -0.03329074     -10.32245656      10.21662306       0.00037300      -0.00026400       0.00027200 
      47       2.02196370      -8.25251538      10.21542415      -0.00001900      -0.00045900       0.00079000 
      47      -2.06858676      -6.19887108       4.08781152      -0.00001900      -0.00045900       0.00078200 
      47      -0.01333232      -4.12892989       4.08661260       0.00037000      -0.00026400       0.00027300 
      47       2.04192212      -2.05898871       4.08541369       0.00011400      -0.00082300       0.00049500 
      47      -0.02593514      -8.25760631       4.12615589       0.00014700      -0.00009100      -0.00265900 
      47       2.02931930      -6.18766513       4.12495697       0.00599500       0.00034500       0.00250100 
      47       4.08457374      -4.11772394       4.12375806       0.00000800      -0.00920200       0.00592100 
      47      -2.06017087      -4.13990900       6.16484510      -0.00003900      -0.00013600      -0.00277800 
      47      -0.00491643      -2.06996782       6.16364618      -0.00027000       0.00034600      -0.00263100 
      47       4.05821277      -8.23180137       4.12309770       0.00300200       0.00695900       0.00712500 
      47      -2.08653183      -8.25398643       6.16418474      -0.00751000       0.00104500       0.01161700 
      47      -0.03127739      -6.18404525       6.16298582       0.00229500       0.00105700       0.00198000 
      47       2.02397705      -4.11410406       6.16178691       0.00285800       0.00127000       0.00136500 
      47       4.07923149      -2.04416288       6.16058799       0.00251100       0.00097000       0.00203800 
30
Lattice="-2.0541941474727103 -2.0758293597172535 8.168699666504583 -2.076273156403035 -8.257579681013095 -2.0362913779511067 6.1458049001130615 0.0162968859193171 6.126413711578044" Properties=Z:I:1:pos:R:3:vasp_force:R:3 uuid=2cc279f5-d868-49a8-9e29-f101d407a625 vasp_virial="0.38352263813138404 -0.2799378236923973 0.00021326380363019393 -0.2799378236923973 -0.2706996234715075 0.38719012929987306 0.00021326380363019393 0.38719012929987306 -0.38251125069901665" vasp_energy=-95.02461352 pbc="T T T"
      46       4.07672802      -6.17971545       6.13054410       0.00025000      -0.00104400      -0.00014900 
      46      -2.06801659      -6.20190051       8.17163114       0.00045400      -0.00024200       0.00018900 
      46      -0.01276215      -4.13195932       8.17043223      -0.00495300       0.00387700       0.00009400 
      46       2.04249230      -2.06201814       8.16923331       0.00048800       0.00025700       0.00031400 
      46       2.02147358      -8.24965663       6.13174302       0.00015800       0.00907100       0.00976100 
      47       2.04215949      -6.18827895       8.14135919      -0.01521800      -0.05160500      -0.01516100 
      47       4.09504232      -4.12776992       8.13783434       0.00641500       0.00754100      -0.00194100 
      47       0.00449186      -2.07412562       2.01022171      -0.00270500      -0.00028900      -0.00156700 
      47       0.00555215      -2.08001379      10.17772247      -0.00255600      -0.00032800      -0.00157100 
      47      -0.01546656      -8.26765229       8.14023217       0.00597100       0.00727000      -0.00196900 
      47      -2.07676156      -8.25796406       2.01109257      -0.00688400       0.00522400       0.00152100 
      47      -0.02150712      -6.18802287       2.00989366      -0.00007900      -0.00014300       0.00174300 
      47      -0.02044682      -6.19391104      10.17739441      -0.00070100      -0.00123800       0.00155400 
      47       2.03480762      -4.12396986      10.17619549      -0.00077700       0.00837500       0.01096800 
      47       4.09006206      -2.05402867      10.17499658      -0.00032900       0.00092900       0.00196900 
      47      -0.03329074     -10.32245656      10.21662306       0.00015800      -0.00009400      -0.00000800 
      47       2.02196370      -8.25251538      10.21542415      -0.00013800       0.00370600      -0.00503100 
      47      -2.06858676      -6.19887108       4.08781152       0.00345000      -0.00158500       0.00362200 
      47      -0.01333232      -4.12892989       4.08661260       0.00029400      -0.00028500       0.00026400 
      47       2.04192212      -2.05898871       4.08541369       0.00005400      -0.00023800       0.00041400 
      47      -0.02593514      -8.25760631       4.12615589      -0.00002900       0.00016400      -0.00234400 
      47       2.02931930      -6.18766513       4.12495697      -0.00012900       0.00001100      -0.00267500 
      47       4.08457374      -4.11772394       4.12375806      -0.00012600       0.00009500      -0.00259800 
      47      -2.06017087      -4.13990900       6.16484510      -0.00007200       0.00010300      -0.00241000 
      47      -0.00491643      -2.06996782       6.16364618      -0.00031200       0.00023300      -0.00294700 
      47       4.05821277      -8.23180137       4.12309770       0.00248200       0.00123200       0.00237400 
      47      -2.08653183      -8.25398643       6.16418474       0.00285500       0.00100300       0.00206600 
      47      -0.03127739      -6.18404525       6.16298582       0.00697900      -0.00041600       0.00620900 
      47       2.02397705      -4.11410406       6.16178691       0.00226200       0.00684300      -0.00495200 
      47       4.07923149      -2.04416288       6.16058799       0.00273700       0.00157400       0.00226200 
30
Lattice="-2.0541941474727103 -2.0758293597172535 8.168699666504583 -2.076273156403035 -8.257579681013095 -2.0362913779511067 6.1458049001130615 0.0162968859193171 6.126413711578044" Properties=Z:I:1:pos:R:3:vasp_force:R:3 uuid=09143b66-5b76-470f-9c4d-84f9bd1f22b6 vasp_virial="0.3824466253039772 -0.28582519718049143 -0.0026399473873616433 -0.28582519718049143 -0.274066606553063 0.3921113531321273 -0.0026399473873616433 0.3921113531321273 -0.3879139337243148" vasp_energy=-95.02458418 pbc="T T T"
      46       4.07672802      -6.17971545       6.13054410      -0.00021400      -0.00025200      -0.00045700 
      46      -2.06801659      -6.20190051       8.17163114       0.00053900      -0.00006900      -0.00006300 
      46      -0.01276215      -4.13195932       8.17043223       0.00444300      -0.00516500      -0.00040400 
      46       2.04249230      -2.06201814       8.16923331       0.00020600      -0.00009600       0.00005500 
      46       2.02147358      -8.24965663       6.13174302      -0.00026800       0.00577500       0.00562300 
      47       2.04687010      -6.19769232       8.14609313      -0.04216100      -0.00018700      -0.04151000 
      47       4.09504232      -4.12776992       8.13783434       0.00215900       0.00491000      -0.00251900 
      47       0.00449186      -2.07412562       2.01022171      -0.00242700      -0.00047400      -0.00161300 
      47       0.00555215      -2.08001379      10.17772247      -0.00238700      -0.00058500      -0.00165400 
      47      -0.01546656      -8.26765229       8.14023217       0.00212200       0.00488200      -0.00252800 
      47      -2.07676156      -8.25796406       2.01109257       0.00502100      -0.00635200       0.00093900 
      47      -0.02150712      -6.18802287       2.00989366       0.00008200       0.00005500       0.00159800 
      47      -0.02044682      -6.19391104      10.17739441      -0.00098100      -0.00009200       0.00101000 
      47       2.03480762      -4.12396986      10.17619549      -0.00127900       0.00536900       0.00660200 
      47       4.09006206      -2.05402867      10.17499658      -0.00050000       0.00020500       0.00174300 
      47      -0.03329074     -10.32245656      10.21662306      -0.00001100      -0.00036000       0.00014500 
      47       2.02196370      -8.25251538      10.21542415      -0.00085300      -0.00526400       0.00464500 
      47      -2.06858676      -6.19887108       4.08781152       0.01014900      -0.00026300       0.01060900 
      47      -0.01333232      -4.12892989       4.08661260       0.00054800      -0.00037200       0.00062600 
      47       2.04192212      -2.05898871       4.08541369      -0.00002500      -0.00016600       0.00014500 
      47      -0.02593514      -8.25760631       4.12615589       0.00036400       0.00002200      -0.00226600 
      47       2.02931930      -6.18766513       4.12495697      -0.00030500      -0.00001500      -0.00218400 
      47       4.08457374      -4.11772394       4.12375806      -0.00022700       0.00011000      -0.00226600 
      47      -2.06017087      -4.13990900       6.16484510       0.00027100       0.00019500      -0.00224000 
      47      -0.00491643      -2.06996782       6.16364618      -0.00000500      -0.00033800      -0.00253500 
      47       4.05821277      -8.23180137       4.12309770       0.00280800       0.00104500       0.00202100 
      47      -2.08653183      -8.25398643       6.16418474       0.00313800       0.00088300       0.00253600 
      47      -0.03127739      -6.18404525       6.16298582       0.01539900       0.00098300       0.01425900 
      47       2.02397705      -4.11410406       6.16178691       0.00173900      -0.00551700       0.00741800 
      47       4.07923149      -2.04416288       6.16058799       0.00265300       0.00113300       0.00226100 
30
Lattice="-2.0541941474727103 -2.0758293597172535 8.168699666504583 -2.076273156403035 -8.257579681013095 -2.0362913779511067 6.1458049001130615 0.0162968859193171 6.126413711578044" Properties=Z:I:1:pos:R:3:vasp_force:R:3 uuid=442c0d1e-214a-4242-9b1a-321ec75f40cb vasp_virial="0.39231169185674963 -0.2808555043019575 0.007066786947564153 -0.2808555043019575 -0.2685669854352056 0.39004980303036874 0.007066786947564153 0.39004980303036874 -0.37376420348042666" vasp_energy=-95.02464491 pbc="T T T"
      46       4.07672802      -6.17971545       6.13054410       0.00067300      -0.00031900       0.00087600 
      46      -2.06801659      -6.20190051       8.17163114      -0.00003900      -0.00050100       0.00045000 
      46      -0.01276215      -4.13195932       8.17043223      -0.00403800       0.00472700       0.00082900 
      46       2.04249230      -2.06201814       8.16923331       0.00029000      -0.00047900       0.00033000 
      46       2.02147358      -8.24965663       6.13174302       0.00080600      -0.00650300      -0.00534800 
      47       2.03270566      -6.19772988       8.13197338       0.03683000      -0.00067500       0.03779300 
      47       4.09504232      -4.12776992       8.13783434      -0.00685400      -0.00560300      -0.00080800 
      47       0.00449186      -2.07412562       2.01022171      -0.00235000      -0.00034200      -0.00167500 
      47       0.00555215      -2.08001379      10.17772247      -0.00239300      -0.00023000      -0.00163400 
      47      -0.01546656      -8.26765229       8.14023217      -0.00698600      -0.00582000      -0.00072200 
      47      -2.07676156      -8.25796406       2.01109257      -0.00582000       0.00611000       0.00267300 
      47      -0.02150712      -6.18802287       2.00989366      -0.00098000      -0.00015200       0.00206000 
      47      -0.02044682      -6.19391104      10.17739441       0.00011000      -0.00000400       0.00262200 
      47       2.03480762      -4.12396986      10.17619549       0.00033800      -0.00533500      -0.00285500 
      47       4.09006206      -2.05402867      10.17499658      -0.00039700      -0.00029800       0.00191600 
      47      -0.03329074     -10.32245656      10.21662306       0.00014200      -0.00035500       0.00027700 
      47       2.02196370      -8.25251538      10.21542415       0.00094400       0.00442800      -0.00413900 
      47      -2.06858676      -6.19887108       4.08781152      -0.00951400      -0.00045000      -0.00967300 
      47      -0.01333232      -4.12892989       4.08661260      -0.00041600      -0.00034100      -0.00020700 
      47       2.04192212      -2.05898871       4.08541369       0.00015800      -0.00055200       0.00027300 
      47      -0.02593514      -8.25760631       4.12615589      -0.00053100       0.00016800      -0.00305000 
      47       2.02931930      -6.18766513       4.12495697       0.00013900       0.00021000      -0.00312900 
      47       4.08457374      -4.11772394       4.12375806       0.00005900       0.00008000      -0.00305100 
      47      -2.06017087      -4.13990900       6.16484510      -0.00044200       0.00000200      -0.00307200 
      47      -0.00491643      -2.06996782       6.16364618      -0.00016400       0.00053300      -0.00278000 
      47       4.05821277      -8.23180137       4.12309770       0.00254100       0.00097300       0.00222300 
      47      -2.08653183      -8.25398643       6.16418474       0.00221000       0.00113100       0.00170700 
      47      -0.03127739      -6.18404525       6.16298582      -0.01067200       0.00103800      -0.01060800 
      47       2.02397705      -4.11410406       6.16178691       0.00366000       0.00767400      -0.00326000 
      47       4.07923149      -2.04416288       6.16058799       0.00269900       0.00088300       0.00198100 
30
Lattice="-2.0541941474727103 -2.0758293597172535 8.168699666504583 -2.076273156403035 -8.257579681013095 -2.0362913779511067 6.1458049001130615 0.0162968859193171 6.126413711578044" Properties=Z:I:1:pos:R:3:vasp_force:R:3 uuid=c3d0b00b-4c66-47f9-82dd-84a8872d4179 vasp_virial="0.3809376223298059 -0.28281042250190097 -0.0007787360102254051 -0.28281042250190097 -0.2786356219823523 0.39520367828476516 -0.0007787360102254051 0.39520367828476516 -0.3904213990518456" vasp_energy=-95.0246595 pbc="T T T"
      46       4.07672802      -6.17971545       6.13054410       0.00039900      -0.00962200       0.00877400 
      46      -2.06801659      -6.20190051       8.17163114       0.00025300      -0.00035700       0.00010600 
      46      -0.01276215      -4.13195932       8.17043223      -0.00008700      -0.00003300       0.00018500 
      46       2.04249230      -2.06201814       8.16923331       0.00058800      -0.00060200       0.00018600 
      46       2.02147358      -8.24965663       6.13174302       0.00627900      -0.00007900       0.00532300 
      47       2.03978788      -6.19771110       8.13903326      -0.00207800      -0.00026100      -0.00283600 
      47       4.09504232      -4.12776992       8.13783434      -0.00244500      -0.00052600      -0.00180300 
      47       0.00449186      -2.07412562       2.01022171      -0.00215000       0.00524500       0.00279100 
      47       0.00555215      -2.08001379      10.17772247      -0.01158000      -0.00007800       0.00670200 
      47      -0.01546656      -8.26765229       8.14023217      -0.00280800      -0.00045400      -0.00177600 
      47      -2.07912949      -8.26035693       2.02050889       0.01241900       0.01156400      -0.04523800 
      47      -0.02150712      -6.18802287       2.00989366      -0.00373300      -0.00327100       0.00060600 
      47      -0.02044682      -6.19391104      10.17739441      -0.00066500       0.00006800       0.00204600 
      47       2.03480762      -4.12396986      10.17619549      -0.00070700       0.00011600       0.00204800 
      47       4.09006206      -2.05402867      10.17499658      -0.00374800      -0.00332400       0.00056900 
      47      -0.03329074     -10.32245656      10.21662306      -0.00032500      -0.00042400       0.00019700 
      47       2.02196370      -8.25251538      10.21542415      -0.00839900      -0.00009700       0.00822200 
      47      -2.06858676      -6.19887108       4.08781152       0.00034300       0.00482800       0.00424700 
      47      -0.01333232      -4.12892989       4.08661260       0.00000600      -0.00045700       0.00011600 
      47       2.04192212      -2.05898871       4.08541369       0.00043800      -0.00032000      -0.00105600 
      47      -0.02593514      -8.25760631       4.12615589       0.00465900       0.00030400       0.00158800 
      47       2.02931930      -6.18766513       4.12495697       0.00011200      -0.00002500      -0.00260100 
      47       4.08457374      -4.11772394       4.12375806      -0.00028400      -0.00006600      -0.00223700 
      47      -2.06017087      -4.13990900       6.16484510      -0.00020500      -0.00017600      -0.00264400 
      47      -0.00491643      -2.06996782       6.16364618       0.00011500      -0.00664000       0.00387800 
      47       4.05821277      -8.23180137       4.12309770       0.00254400       0.00081700       0.00296200 
      47      -2.08653183      -8.25398643       6.16418474       0.00250000       0.00092100       0.00283000 
      47      -0.03127739      -6.18404525       6.16298582       0.00293300       0.00112900       0.00223100 
      47       2.02397705      -4.11410406       6.16178691       0.00274800       0.00064900       0.00230100 
      47       4.07923149      -2.04416288       6.16058799       0.00287700       0.00117000       0.00228200 
30
Lattice="-2.0541941474727103 -2.0758293597172535 8.168699666504583 -2.076273156403035 -8.257579681013095 -2.0362913779511067 6.1458049001130615 0.0162968859193171 6.126413711578044" Properties=Z:I:1:pos:R:3:vasp_force:R:3 uuid=0f92218e-24ea-47f6-880f-6d121d1b5b5a vasp_virial="0.39409212149008654 -0.283511608038079 0.0030600124551180856 -0.283511608038079 -0.26450204808722405 0.38571990156272545 0.0030600124551180856 0.38571990156272545 -0.37168326576015626" vasp_energy=-95.02462958 pbc="T T T"
      46       4.07672802      -6.17971545       6.13054410       0.00003500       0.00947400      -0.00877400 
      46      -2.06801659      -6.20190051       8.17163114       0.00020100      -0.00024000       0.00025400 
      46      -0.01276215      -4.13195932       8.17043223       0.00054200      -0.00056500       0.00017500 
      46       2.04249230      -2.06201814       8.16923331      -0.00012800       0.00000700       0.00017200 
      46       2.02147358      -8.24965663       6.13174302      -0.00598100      -0.00052400      -0.00505100 
      47       2.03978788      -6.19771110       8.13903326      -0.00271000      -0.00060800      -0.00047600 
      47       4.09504232      -4.12776992       8.13783434      -0.00237200      -0.00031600      -0.00150900 
      47       0.00449186      -2.07412562       2.01022171      -0.00268100      -0.00621500      -0.00617100 
      47       0.00555215      -2.08001379      10.17772247       0.00715600      -0.00078200      -0.01033400 
      47      -0.01546656      -8.26765229       8.14023217      -0.00200500      -0.00038400      -0.00153600 
      47      -2.07439362      -8.25557118       2.00167626      -0.01285000      -0.01119200       0.04923000 
      47      -0.02150712      -6.18802287       2.00989366       0.00283100       0.00318600       0.00306400 
      47      -0.02044682      -6.19391104      10.17739441      -0.00027100      -0.00018500       0.00158800 
      47       2.03480762      -4.12396986      10.17619549      -0.00022900      -0.00023800       0.00158500 
      47       4.09006206      -2.05402867      10.17499658       0.00277700       0.00317100       0.00302600 
      47      -0.03329074     -10.32245656      10.21662306       0.00041500      -0.00031600       0.00019700 
      47       2.02196370      -8.25251538      10.21542415       0.00812500      -0.00062100      -0.00751800 
      47      -2.06858676      -6.19887108       4.08781152      -0.00023600      -0.00543700      -0.00378100 
      47      -0.01333232      -4.12892989       4.08661260       0.00008900      -0.00027900       0.00027800 
      47       2.04192212      -2.05898871       4.08541369      -0.00037100      -0.00039300       0.00145100 
      47      -0.02593514      -8.25760631       4.12615589      -0.00474400      -0.00012200      -0.00685300 
      47       2.02931930      -6.18766513       4.12495697      -0.00032300       0.00019600      -0.00273900 
      47       4.08457374      -4.11772394       4.12375806       0.00007800       0.00024200      -0.00310700 
      47      -2.06017087      -4.13990900       6.16484510      -0.00000000       0.00034800      -0.00269400 
      47      -0.00491643      -2.06996782       6.16364618      -0.00030400       0.00650400      -0.00895000 
      47       4.05821277      -8.23180137       4.12309770       0.00276700       0.00117600       0.00125400 
      47      -2.08653183      -8.25398643       6.16418474       0.00281300       0.00107600       0.00138500 
      47      -0.03127739      -6.18404525       6.16298582       0.00237900       0.00086700       0.00198600 
      47       2.02397705      -4.11410406       6.16178691       0.00256400       0.00134500       0.00191600 
      47       4.07923149      -2.04416288       6.16058799       0.00243500       0.00082400       0.00193300 
30
Lattice="-2.0541941474727103 -2.0758293597172535 8.168699666504583 -2.076273156403035 -8.257579681013095 -2.0362913779511067 6.1458049001130615 0.0162968859193171 6.126413711578044" Properties=Z:I:1:pos:R:3:vasp_force:R:3 uuid=58954db9-0a8d-4f3d-9b79-025d3c9196d8 vasp_virial="0.3887734514783396 -0.2812594130209541 0.0037256540240244488 -0.2812594130209541 -0.27491643049783177 0.39532000399583617 0.0037256540240244488 0.39532000399583617 -0.382466012922489" vasp_energy=-95.02463257 pbc="T T T"
      46       4.07672802      -6.17971545       6.13054410       0.00050900      -0.00567900       0.00611900 
      46      -2.06801659      -6.20190051       8.17163114       0.00009700      -0.00018200       0.00041300 
      46      -0.01276215      -4.13195932       8.17043223       0.00027500      -0.00030600      -0.00002800 
      46       2.04249230      -2.06201814       8.16923331       0.00020900      -0.00028600       0.00030000 
      46       2.02147358      -8.24965663       6.13174302      -0.00380500       0.00043000      -0.00376500 
      47       2.03978788      -6.19771110       8.13903326       0.00402500      -0.00567900      -0.00136900 
      47       4.09504232      -4.12776992       8.13783434      -0.00254400      -0.00138900      -0.00178600 
      47       0.00449186      -2.07412562       2.01022171      -0.00198900      -0.00889500      -0.01064700 
      47       0.00555215      -2.08001379      10.17772247      -0.00219600       0.00077700      -0.00134100 
      47      -0.01546656      -8.26765229       8.14023217      -0.00272500      -0.00033500      -0.00155400 
      47      -2.07913316      -8.26739621       2.00876664       0.01007200       0.04880800       0.01399600 
      47      -0.02150712      -6.18802287       2.00989366      -0.00875600      -0.00764600       0.00208900 
      47      -0.02044682      -6.19391104      10.17739441      -0.00013200      -0.00032000       0.00165900 
      47       2.03480762      -4.12396986      10.17619549      -0.00018200      -0.00031600       0.00169100 
      47       4.09006206      -2.05402867      10.17499658      -0.00908800      -0.00795800       0.00210200 
      47      -0.03329074     -10.32245656      10.21662306      -0.00027000      -0.00033600       0.00028800 
      47       2.02196370      -8.25251538      10.21542415       0.00023200       0.00082000       0.00052200 
      47      -2.06858676      -6.19887108       4.08781152       0.00032800      -0.00746600      -0.00783900 
      47      -0.01333232      -4.12892989       4.08661260      -0.00009300      -0.00122400       0.00008500 
      47       2.04192212      -2.05898871       4.08541369       0.00582900      -0.00506700       0.00062800 
      47      -0.02593514      -8.25760631       4.12615589      -0.00289900       0.00096000      -0.00557200 
      47       2.02931930      -6.18766513       4.12495697      -0.00034400       0.00003700      -0.00270300 
      47       4.08457374      -4.11772394       4.12375806      -0.00006500      -0.00013900      -0.00262600 
      47      -2.06017087      -4.13990900       6.16484510      -0.00023900      -0.00006500      -0.00245700 
      47      -0.00491643      -2.06996782       6.16364618       0.00016600      -0.00340900       0.00151800 
      47       4.05821277      -8.23180137       4.12309770       0.00274200       0.00108200       0.00212100 
      47      -2.08653183      -8.25398643       6.16418474       0.00267300       0.00101600       0.00201400 
      47      -0.03127739      -6.18404525       6.16298582       0.00257700       0.00102300       0.00182600 
      47       2.02397705      -4.11410406       6.16178691       0.00288600       0.00086200       0.00241700 
      47       4.07923149      -2.04416288       6.16058799       0.00270700       0.00088500       0.00190100 
30
Lattice="-2.0541941474727103 -2.0758293597172535 8.168699666504583 -2.076273156403035 -8.257579681013095 -2.0362913779511067 6.1458049001130615 0.0162968859193171 6.126413711578044" Properties=Z:I:1:pos:R:3:vasp_force:R:3 uuid=ee2c4aa8-103c-47dc-8aff-e166ab0a24bd vasp_virial="0.3861496604397378 -0.28434204436433597 -0.0004136025282524974 -0.28434204436433597 -0.26836664671058325 0.3866731261395574 -0.0004136025282524974 0.3866731261395574 -0.37970327728455244" vasp_energy=-95.02464737 pbc="T T T"
      46       4.07672802      -6.17971545       6.13054410      -0.00005100       0.00518500      -0.00594400 
      46      -2.06801659      -6.20190051       8.17163114       0.00037300      -0.00041700      -0.00007400 
      46      -0.01276215      -4.13195932       8.17043223       0.00019200      -0.00028900       0.00037900 
      46       2.04249230      -2.06201814       8.16923331       0.00026200      -0.00030700       0.00004500 
      46       2.02147358      -8.24965663       6.13174302       0.00423000      -0.00099100       0.00407100 
      47       2.03978788      -6.19771110       8.13903326      -0.00898600       0.00492300      -0.00197200 
      47       4.09504232      -4.12776992       8.13783434      -0.00226400       0.00054700      -0.00154000 
      47       0.00449186      -2.07412562       2.01022171      -0.00279300       0.00773300       0.00694400 
      47       0.00555215      -2.08001379      10.17772247      -0.00263700      -0.00161900      -0.00195600 
      47      -0.01546656      -8.26765229       8.14023217      -0.00207700      -0.00050600      -0.00177100 
      47      -2.07438995      -8.24853190       2.01341851      -0.01085900      -0.04823100      -0.00969200 
      47      -0.02150712      -6.18802287       2.00989366       0.00819800       0.00782900       0.00151200 
      47      -0.02044682      -6.19391104      10.17739441      -0.00078900       0.00019800       0.00196100 
      47       2.03480762      -4.12396986      10.17619549      -0.00074500       0.00019300       0.00193200 
      47       4.09006206      -2.05402867      10.17499658       0.00780000       0.00753100       0.00153700 
      47      -0.03329074     -10.32245656      10.21662306       0.00037300      -0.00040800       0.00009500 
      47       2.02196370      -8.25251538      10.21542415      -0.00010300      -0.00156300      -0.00016200 
      47      -2.06858676      -6.19887108       4.08781152      -0.00024200       0.00701200       0.00857700 
      47      -0.01333232      -4.12892989       4.08661260       0.00020200       0.00048300       0.00030000 
      47       2.04192212      -2.05898871       4.08541369      -0.00557800       0.00424700      -0.00022700 
      47      -0.02593514      -8.25760631       4.12615589       0.00273500      -0.00082400       0.00025700 