  30
   1   1
     7.187431434332507     0.034149216529379    -0.013917117149273
     0.006717301309356     7.261508870785134     0.004039805258029
     0.021671343406593    -0.003927317943327     7.159855850891414
   1   2
    -1.006545391204837    -1.005545475669941     0.064634375415298
    -1.002687760027112    -0.930600814360215     0.066871358168870
    -0.067488010729941    -0.062164409751394     0.161863664174502
   1   3
    -0.921027287788739     1.001121045110707    -0.063837448911928
     1.002850602257154    -1.011575241895578     0.066925525333134
     0.060820111945489    -0.070085223508131     0.156815253723500
   1   4
    -0.921025117083073     1.001668032683231     0.061919305073838
     1.002195745240379    -1.011512824746729    -0.070416169850619
    -0.065120353386595     0.067265767575164     0.156585765162987
   1   5
    -1.006509224682215    -1.003937099436300    -0.066276458716618
    -1.004225287271889    -0.930660809513115    -0.062689136508706
     0.063636766262295     0.067060566977407     0.161719428477195
   1   6
     0.071912429942080     0.026448343621570    -0.010365171216272
     0.017065564700946    -1.070870675215781     1.175858614877326
     0.036786561802997     1.195456995087248    -1.037768086435408
   1   7
    -1.072766988256670    -0.027866985767475    -1.168184645056575
    -0.032169186892031     0.074148895239514    -0.003111800054780
    -1.195489226254872     0.035077299939985    -1.035438544190643
   1   8
    -1.077701841168716    -0.024382425565470     1.169245346721868
    -0.030883680180962     0.074508192821434     0.006789180059203
     1.196029013533845    -0.037921694149437    -1.030677584512738
   1   9
     0.072252983490976     0.035328803306848     0.015847365110385
     0.022238091667929    -1.074461914067457    -1.179381888068375
    -0.040051841939202    -1.197685906018826    -1.035278188799873
   1  10
    -0.100047933182333    -0.018498800279992     0.000830885013840
     0.020489723834163    -0.110840952489924    -0.004691373498320
     0.001171652908207     0.002513009442246    -0.046420147506701
   1  11
    -0.068634948593580    -0.031212993149613    -0.006995033067744
     0.040123243780291    -0.071283530594340    -0.004236338540276
    -0.008387062677752    -0.002546352073834    -0.056334749070865
   1  12
     0.067623329620551    -0.029597732753177    -0.077567525424018
    -0.045760588044263     0.022601573693998    -0.037597045373341
    -0.086081473147370    -0.034526744290118     0.009317025593887
   1  13
     0.020813920735157     0.045972353477500     0.042649638727200
     0.032076470430099     0.062343109170027    -0.072118810138095
     0.038659978502756    -0.085237711741097     0.000083827632465
   1  14
     0.022196120003750     0.047488101416306    -0.042501041633846
     0.028480708369200     0.064835086832475     0.079238026854945
    -0.038460555640588     0.089516653357062    -0.002923537151014
   1  15
     0.067620449446337    -0.037113235694474     0.083765371766102
    -0.053327323753733     0.018268016473964     0.036221357353109
     0.087821145389019     0.032399456823238    -0.004319648282368
   1  16
     0.002195068648962     0.035405544452121     0.016070645598967
     0.014955511310638     0.007655314715759     0.000447688184703
     0.033596174463982    -0.003992409655793     0.016900949279957
   1  17
     0.015703248912200    -0.020489251667432     0.002866279545809
    -0.024025054013413    -0.008306516077932     0.025437758603633
     0.009775025817547     0.038204849975815     0.003412262398685
   1  18
     0.000733082604547    -0.020809065925101    -0.004768362449177
    -0.023506791575705     0.009485490839533    -0.014191428554478
    -0.005770302815643    -0.035018997457301     0.003050033712271
   1  19
    -0.007756848692635     0.012951568812015    -0.007811842650708
     0.014158081086300     0.006635499495286    -0.006321024408344
    -0.033374376872955     0.002891145104335     0.001560457544038
   1  20
     0.023019846563939    -0.011321194714341    -0.000978575977399
     0.015199842528586     0.003341744089083    -0.004145070672519
    -0.003693547317123     0.003106666350136    -0.050206774359375
   1  21
    -0.001832013839964     0.009425120383006    -0.006213122298474
     0.010319922564363    -0.009579436667268     0.014819683084690
    -0.007664202048506     0.015160027330454    -0.016648040280521
   1  22
     0.013815754217199     0.010962467767402     0.007639037894367
     0.011878707299222    -0.019130220193359     0.007489645910807
     0.006525913547679     0.007468413901786    -0.017099265223590
   1  23
    -0.007255690605999    -0.012524159972185     0.008424039312707
    -0.011624199723109    -0.008012578962232    -0.030614327844467
     0.006954633976495    -0.030490068952693    -0.013230664513472
   1  24
     0.002017022453500     0.001529910434321    -0.010087503009559
     0.002577816338379     0.017294175304203    -0.013069718264159
    -0.011389274676161    -0.012794877531052    -0.064320424116444
   1  25
     0.017323786379108    -0.013200159518094     0.002371485790191
    -0.012270928869226     0.032806760314933     0.021134056461031
     0.001143448678408     0.021634439556664    -0.018991449348665
   1  26
    -0.026470491366969    -0.001421173266975     0.005149728476893
     0.002723416235765    -0.028112281714269     0.002323062408631
    -0.001877006182684     0.000957330468412     0.003875415168634
   1  27
     0.111424092466555     0.007763922183730    -0.005815636881519
     0.009278050693920    -0.795225025902358    -0.951035100974872
     0.006400207157325    -0.866458361913411    -0.852420123366951
   1  28
    -0.793230420433998    -0.010504310153755     0.954028121596029
    -0.009409104109605     0.107661384810555    -0.011013115048110
     0.863631029417001     0.003816850053053    -0.854186078302840
   1  29
    -0.795247963900864    -0.009981482968815    -0.956530842664251
    -0.011350853947654     0.106415295416757     0.006205095769598
    -0.865086691617367    -0.002296693774339    -0.854334922349939
   1  30
     0.109970223523164     0.008191590681300     0.006408226650292
     0.007911642389791    -0.789336429619338     0.950831331225703
    -0.004690160439042     0.862616679157290    -0.844444168701651
   2   1
    -1.006509224682215    -1.003937099436300    -0.066276458716618
    -1.004225287271889    -0.930660809513115    -0.062689136508706
     0.063636766262295     0.067060566977407     0.161719428477195
   2   2
     7.187431434332507     0.034149216529378    -0.013917117149273
     0.006717301309356     7.261508870785134     0.004039805258029
     0.021671343406593    -0.003927317943327     7.159855850891414
   2   3
    -1.006545391204837    -1.005545475669941     0.064634375415298
    -1.002687760027112    -0.930600814360215     0.066871358168870
    -0.067488010729941    -0.062164409751394     0.161863664174502
   2   4
    -0.921027287788739     1.001121045110707    -0.063837448911928
     1.002850602257154    -1.011575241895578     0.066925525333134
     0.060820111945489    -0.070085223508131     0.156815253723500
   2   5
    -0.921025117083073     1.001668032683231     0.061919305073838
     1.002195745240379    -1.011512824746729    -0.070416169850619
    -0.065120353386595     0.067265767575164     0.156585765162987
   2   6
    -0.100047933182333    -0.018498800279992     0.000830885013840
     0.020489723834163    -0.110840952489924    -0.004691373498320
     0.001171652908207     0.002513009442246    -0.046420147506701
   2   7
     0.071912429942080     0.026448343621570    -0.010365171216272
     0.017065564700946    -1.070870675215781     1.175858614877326
     0.036786561802997     1.195456995087248    -1.037768086435408
   2   8
    -1.072766988256670    -0.027866985767475    -1.168184645056575
    -0.032169186892031     0.074148895239514    -0.003111800054780
    -1.195489226254872     0.035077299939985    -1.035438544190643
   2   9
    -1.077701841168716    -0.024382425565470     1.169245346721868
    -0.030883680180962     0.074508192821434     0.006789180059203
     1.196029013533845    -0.037921694149437    -1.030677584512738
   2  10
     0.072252983490976     0.035328803306848     0.015847365110385
     0.022238091667929    -1.074461914067457    -1.179381888068375
    -0.040051841939202    -1.197685906018826    -1.035278188799873
   2  11
     0.067620449446337    -0.037113235694474     0.083765371766102
    -0.053327323753733     0.018268016473964     0.036221357353109
     0.087821145389019     0.032399456823238    -0.004319648282368
   2  12
    -0.068634948593580    -0.031212993149613    -0.006995033067744
     0.040123243780291    -0.071283530594340    -0.004236338540276
    -0.008387062677752    -0.002546352073834    -0.056334749070865
   2  13
     0.067623329620551    -0.029597732753177    -0.077567525424018
    -0.045760588044263     0.022601573693998    -0.037597045373341
    -0.086081473147370    -0.034526744290118     0.009317025593887
   2  14
     0.020813920735157     0.045972353477500     0.042649638727200
     0.032076470430099     0.062343109170027    -0.072118810138095
     0.038659978502756    -0.085237711741097     0.000083827632465
   2  15
     0.022196120003750     0.047488101416306    -0.042501041633846
     0.028480708369200     0.064835086832475     0.079238026854945
    -0.038460555640588     0.089516653357062    -0.002923537151014
   2  16
     0.023019846563939    -0.011321194714341    -0.000978575977399
     0.015199842528586     0.003341744089083    -0.004145070672519
    -0.003693547317123     0.003106666350136    -0.050206774359375
   2  17
     0.002195068648962     0.035405544452121     0.016070645598967
     0.014955511310638     0.007655314715759     0.000447688184703
     0.033596174463982    -0.003992409655793     0.016900949279957
   2  18
     0.015703248912200    -0.020489251667432     0.002866279545809
    -0.024025054013413    -0.008306516077932     0.025437758603633
     0.009775025817547     0.038204849975815     0.003412262398685
   2  19
     0.000733082604547    -0.020809065925101    -0.004768362449177
    -0.023506791575705     0.009485490839533    -0.014191428554478
    -0.005770302815643    -0.035018997457301     0.003050033712271
   2  20
    -0.007756848692635     0.012951568812015    -0.007811842650708
     0.014158081086300     0.006635499495286    -0.006321024408344
    -0.033374376872955     0.002891145104335     0.001560457544038
   2  21
     0.017323786379108    -0.013200159518094     0.002371485790191
    -0.012270928869226     0.032806760314933     0.021134056461031
     0.001143448678408     0.021634439556664    -0.018991449348665
   2  22
    -0.001832013839964     0.009425120383006    -0.006213122298474
     0.010319922564363    -0.009579436667268     0.014819683084690
    -0.007664202048506     0.015160027330454    -0.016648040280521
   2  23
     0.013815754217199     0.010962467767402     0.007639037894367
     0.011878707299222    -0.019130220193359     0.007489645910807
     0.006525913547679     0.007468413901786    -0.017099265223590
   2  24
    -0.007255690605999    -0.012524159972185     0.008424039312707
    -0.011624199723109    -0.008012578962232    -0.030614327844467
     0.006954633976495    -0.030490068952693    -0.013230664513472
   2  25
     0.002017022453500     0.001529910434321    -0.010087503009559
     0.002577816338379     0.017294175304203    -0.013069718264159
    -0.011389274676161    -0.012794877531052    -0.064320424116444
   2  26
     0.109970223523164     0.008191590681300     0.006408226650292
     0.007911642389791    -0.789336429619338     0.950831331225703
    -0.004690160439042     0.862616679157290    -0.844444168701651
   2  27
    -0.026470491366969    -0.001421173266975     0.005149728476893
     0.002723416235765    -0.028112281714269     0.002323062408631
    -0.001877006182684     0.000957330468412     0.003875415168634
   2  28
     0.111424092466555     0.007763922183730    -0.005815636881519
     0.009278050693920    -0.795225025902358    -0.951035100974872
     0.006400207157325    -0.866458361913411    -0.852420123366951
   2  29
    -0.793230420433998    -0.010504310153755     0.954028121596029
    -0.009409104109605     0.107661384810555    -0.011013115048110
     0.863631029417001     0.003816850053053    -0.854186078302840
   2  30
    -0.795247963900864    -0.009981482968815    -0.956530842664251
    -0.011350853947654     0.106415295416757     0.006205095769598
    -0.865086691617367    -0.002296693774339    -0.854334922349939
   3   1
    -0.921025117083073     1.001668032683231     0.061919305073838
     1.002195745240379    -1.011512824746729    -0.070416169850619
    -0.065120353386595     0.067265767575164     0.156585765162987
   3   2
    -1.006509224682215    -1.003937099436300    -0.066276458716618
    -1.004225287271889    -0.930660809513115    -0.062689136508706
     0.063636766262295     0.067060566977407     0.161719428477195
   3   3
     7.187431434332507     0.034149216529378    -0.013917117149273
     0.006717301309356     7.261508870785134     0.004039805258029
     0.021671343406593    -0.003927317943327     7.159855850891414
   3   4
    -1.006545391204837    -1.005545475669941     0.064634375415298
    -1.002687760027112    -0.930600814360215     0.066871358168870
    -0.067488010729941    -0.062164409751394     0.161863664174502
   3   5
    -0.921027287788739     1.001121045110707    -0.063837448911928
     1.002850602257154    -1.011575241895578     0.066925525333134
     0.060820111945489    -0.070085223508131     0.156815253723500
   3   6
     0.072252983490976     0.035328803306848     0.015847365110385
     0.022238091667929    -1.074461914067457    -1.179381888068375
    -0.040051841939202    -1.197685906018826    -1.035278188799873
   3   7
    -0.100047933182333    -0.018498800279992     0.000830885013840
     0.020489723834163    -0.110840952489924    -0.004691373498320
     0.001171652908207     0.002513009442246    -0.046420147506701
   3   8
     0.071912429942080     0.026448343621570    -0.010365171216272
     0.017065564700946    -1.070870675215781     1.175858614877326
     0.036786561802997     1.195456995087248    -1.037768086435408
   3   9
    -1.072766988256670    -0.027866985767475    -1.168184645056575
    -0.032169186892031     0.074148895239514    -0.003111800054780
    -1.195489226254872     0.035077299939985    -1.035438544190643
   3  10
    -1.077701841168716    -0.024382425565470     1.169245346721868
    -0.030883680180962     0.074508192821434     0.006789180059203
     1.196029013533845    -0.037921694149437    -1.030677584512738
   3  11
     0.022196120003750     0.047488101416306    -0.042501041633846
     0.028480708369200     0.064835086832475     0.079238026854945
    -0.038460555640588     0.089516653357062    -0.002923537151014
   3  12
     0.067620449446337    -0.037113235694474     0.083765371766102
    -0.053327323753733     0.018268016473964     0.036221357353109
     0.087821145389019     0.032399456823238    -0.004319648282368
   3  13
    -0.068634948593580    -0.031212993149613    -0.006995033067744
     0.040123243780291    -0.071283530594340    -0.004236338540276
    -0.008387062677752    -0.002546352073834    -0.056334749070865
   3  14
     0.067623329620551    -0.029597732753177    -0.077567525424018
    -0.045760588044263     0.022601573693998    -0.037597045373341
    -0.086081473147370    -0.034526744290118     0.009317025593887
   3  15
     0.020813920735157     0.045972353477500     0.042649638727200
     0.032076470430099     0.062343109170027    -0.072118810138095
     0.038659978502756    -0.085237711741097     0.000083827632465
   3  16
    -0.007756848692635     0.012951568812015    -0.007811842650708
     0.014158081086300     0.006635499495286    -0.006321024408344
    -0.033374376872955     0.002891145104335     0.001560457544038
   3  17
     0.023019846563939    -0.011321194714341    -0.000978575977399
     0.015199842528586     0.003341744089083    -0.004145070672519
    -0.003693547317123     0.003106666350136    -0.050206774359375
   3  18
     0.002195068648962     0.035405544452121     0.016070645598967
     0.014955511310638     0.007655314715759     0.000447688184703
     0.033596174463982    -0.003992409655793     0.016900949279957
   3  19
     0.015703248912200    -0.020489251667432     0.002866279545809
    -0.024025054013413    -0.008306516077932     0.025437758603633
     0.009775025817547     0.038204849975815     0.003412262398685
   3  20
     0.000733082604547    -0.020809065925101    -0.004768362449177
    -0.023506791575705     0.009485490839533    -0.014191428554478
    -0.005770302815643    -0.035018997457301     0.003050033712271
   3  21
     0.002017022453500     0.001529910434321    -0.010087503009559
     0.002577816338379     0.017294175304203    -0.013069718264159
    -0.011389274676161    -0.012794877531052    -0.064320424116444
   3  22
     0.017323786379108    -0.013200159518094     0.002371485790191
    -0.012270928869226     0.032806760314933     0.021134056461031
     0.001143448678408     0.021634439556664    -0.018991449348665
   3  23
    -0.001832013839964     0.009425120383006    -0.006213122298474
     0.010319922564363    -0.009579436667268     0.014819683084690
    -0.007664202048506     0.015160027330454    -0.016648040280521
   3  24
     0.013815754217199     0.010962467767402     0.007639037894367
     0.011878707299222    -0.019130220193359     0.007489645910807
     0.006525913547679     0.007468413901786    -0.017099265223590
   3  25
    -0.007255690605999    -0.012524159972185     0.008424039312707
    -0.011624199723109    -0.008012578962232    -0.030614327844467
     0.006954633976495    -0.030490068952693    -0.013230664513472
   3  26
    -0.795247963900864    -0.009981482968815    -0.956530842664251
    -0.011350853947654     0.106415295416757     0.006205095769598
    -0.865086691617367    -0.002296693774339    -0.854334922349939
   3  27
     0.109970223523164     0.008191590681300     0.006408226650292
     0.007911642389791    -0.789336429619338     0.950831331225703
    -0.004690160439042     0.862616679157290    -0.844444168701651
   3  28
    -0.026470491366969    -0.001421173266975     0.005149728476893
     0.002723416235765    -0.028112281714269     0.002323062408631
    -0.001877006182684     0.000957330468412     0.003875415168634
   3  29
     0.111424092466555     0.007763922183730    -0.005815636881519
     0.009278050693920    -0.795225025902358    -0.951035100974872
     0.006400207157325    -0.866458361913411    -0.852420123366951
   3  30
    -0.793230420433998    -0.010504310153755     0.954028121596029
    -0.009409104109605     0.107661384810555    -0.011013115048110
     0.863631029417001     0.003816850053053    -0.854186078302840
   4   1
    -0.921027287788739     1.001121045110707    -0.063837448911928
     1.002850602257154    -1.011575241895578     0.066925525333134
     0.060820111945489    -0.070085223508131     0.156815253723500
   4   2
    -0.921025117083073     1.001668032683231     0.061919305073838
     1.002195745240379    -1.011512824746729    -0.070416169850619
    -0.065120353386595     0.067265767575164     0.156585765162987
   4   3
    -1.006509224682215    -1.003937099436300    -0.066276458716618
    -1.004225287271889    -0.930660809513115    -0.062689136508706
     0.063636766262295     0.067060566977407     0.161719428477195
   4   4
     7.187431434332507     0.034149216529378    -0.013917117149273
     0.006717301309356     7.261508870785134     0.004039805258029
     0.021671343406593    -0.003927317943327     7.159855850891414
   4   5
    -1.006545391204837    -1.005545475669941     0.064634375415298
    -1.002687760027112    -0.930600814360215     0.066871358168870
    -0.067488010729941    -0.062164409751394     0.161863664174502
   4   6
    -1.077701841168716    -0.024382425565470     1.169245346721868
    -0.030883680180962     0.074508192821434     0.006789180059203
     1.196029013533845    -0.037921694149437    -1.030677584512738
   4   7
     0.072252983490976     0.035328803306848     0.015847365110385
     0.022238091667929    -1.074461914067457    -1.179381888068375
    -0.040051841939202    -1.197685906018826    -1.035278188799873
   4   8
    -0.100047933182333    -0.018498800279992     0.000830885013840
     0.020489723834163    -0.110840952489924    -0.004691373498320
     0.001171652908207     0.002513009442246    -0.046420147506701
   4   9
     0.071912429942080     0.026448343621570    -0.010365171216272
     0.017065564700946    -1.070870675215781     1.175858614877326
     0.036786561802997     1.195456995087248    -1.037768086435408
   4  10
    -1.072766988256670    -0.027866985767475    -1.168184645056575
    -0.032169186892031     0.074148895239514    -0.003111800054780
    -1.195489226254872     0.035077299939985    -1.035438544190643
   4  11
     0.020813920735157     0.045972353477500     0.042649638727200
     0.032076470430099     0.062343109170027    -0.072118810138095
     0.038659978502756    -0.085237711741097     0.000083827632465
   4  12
     0.022196120003750     0.047488101416306    -0.042501041633846
     0.028480708369200     0.064835086832475     0.079238026854945
    -0.038460555640588     0.089516653357062    -0.002923537151014
   4  13
     0.067620449446337    -0.037113235694474     0.083765371766102
    -0.053327323753733     0.018268016473964     0.036221357353109
     0.087821145389019     0.032399456823238    -0.004319648282368
   4  14
    -0.068634948593580    -0.031212993149613    -0.006995033067744
     0.040123243780291    -0.071283530594340    -0.004236338540276
    -0.008387062677752    -0.002546352073834    -0.056334749070865
   4  15
     0.067623329620551    -0.029597732753177    -0.077567525424018
    -0.045760588044263     0.022601573693998    -0.037597045373341
    -0.086081473147370    -0.034526744290118     0.009317025593887
   4  16
     0.000733082604547    -0.020809065925101    -0.004768362449177
    -0.023506791575705     0.009485490839533    -0.014191428554478
    -0.005770302815643    -0.035018997457301     0.003050033712271
   4  17
    -0.007756848692635     0.012951568812015    -0.007811842650708
     0.014158081086300     0.006635499495286    -0.006321024408344
    -0.033374376872955     0.002891145104335     0.001560457544038
   4  18
     0.023019846563939    -0.011321194714341    -0.000978575977399
     0.015199842528586     0.003341744089083    -0.004145070672519
    -0.003693547317123     0.003106666350136    -0.050206774359375
   4  19
     0.002195068648962     0.035405544452121     0.016070645598967
     0.014955511310638     0.007655314715759     0.000447688184703
     0.033596174463982    -0.003992409655793     0.016900949279957
   4  20
     0.015703248912200    -0.020489251667432     0.002866279545809
    -0.024025054013413    -0.008306516077932     0.025437758603633
     0.009775025817547     0.038204849975815     0.003412262398685
   4  21
    -0.007255690605999    -0.012524159972185     0.008424039312707
    -0.011624199723109    -0.008012578962232    -0.030614327844467
     0.006954633976495    -0.030490068952693    -0.013230664513472
   4  22
     0.002017022453500     0.001529910434321    -0.010087503009559
     0.002577816338379     0.017294175304203    -0.013069718264159
    -0.011389274676161    -0.012794877531052    -0.064320424116444
   4  23
     0.017323786379108    -0.013200159518094     0.002371485790191
    -0.012270928869226     0.032806760314933     0.021134056461031
     0.001143448678408     0.021634439556664    -0.018991449348665
   4  24
    -0.001832013839964     0.009425120383006    -0.006213122298474
     0.010319922564363    -0.009579436667268     0.014819683084690
    -0.007664202048506     0.015160027330454    -0.016648040280521
   4  25
     0.013815754217199     0.010962467767402     0.007639037894367
     0.011878707299222    -0.019130220193359     0.007489645910807
     0.006525913547679     0.007468413901786    -0.017099265223590
   4  26
    -0.793230420433998    -0.010504310153755     0.954028121596029
    -0.009409104109605     0.107661384810555    -0.011013115048110
     0.863631029417001     0.003816850053053    -0.854186078302840
   4  27
    -0.795247963900864    -0.009981482968815    -0.956530842664251
    -0.011350853947654     0.106415295416757     0.006205095769598
    -0.865086691617367    -0.002296693774339    -0.854334922349939
   4  28
     0.109970223523164     0.008191590681300     0.006408226650292
     0.007911642389791    -0.789336429619338     0.950831331225703
    -0.004690160439042     0.862616679157290    -0.844444168701651
   4  29
    -0.026470491366969    -0.001421173266975     0.005149728476893
     0.002723416235765    -0.028112281714269     0.002323062408631
    -0.001877006182684     0.000957330468412     0.003875415168634
   4  30
     0.111424092466555     0.007763922183730    -0.005815636881519
     0.009278050693920    -0.795225025902358    -0.951035100974872
     0.006400207157325    -0.866458361913411    -0.852420123366951
   5   1
    -1.006545391204837    -1.005545475669941     0.064634375415298
    -1.002687760027112    -0.930600814360215     0.066871358168870
    -0.067488010729941    -0.062164409751394     0.161863664174502
   5   2
    -0.921027287788739     1.001121045110707    -0.063837448911928
     1.002850602257154    -1.011575241895578     0.066925525333134
     0.060820111945489    -0.070085223508131     0.156815253723500
   5   3
    -0.921025117083073     1.001668032683231     0.061919305073838
     1.002195745240379    -1.011512824746729    -0.070416169850619
    -0.065120353386595     0.067265767575164     0.156585765162987
   5   4
    -1.006509224682215    -1.003937099436300    -0.066276458716618
    -1.004225287271889    -0.930660809513115    -0.062689136508706
     0.063636766262295     0.067060566977407     0.161719428477195
   5   5
     7.187431434332507     0.034149216529378    -0.013917117149273
     0.006717301309356     7.261508870785134     0.004039805258029
     0.021671343406593    -0.003927317943327     7.159855850891414
   5   6
    -1.072766988256670    -0.027866985767475    -1.168184645056575
    -0.032169186892031     0.074148895239514    -0.003111800054780
    -1.195489226254872     0.035077299939985    -1.035438544190643
   5   7
    -1.077701841168716    -0.024382425565470     1.169245346721868
    -0.030883680180962     0.074508192821434     0.006789180059203
     1.196029013533845    -0.037921694149437    -1.030677584512738
   5   8
     0.072252983490976     0.035328803306848     0.015847365110385
     0.022238091667929    -1.074461914067457    -1.179381888068375
    -0.040051841939202    -1.197685906018826    -1.035278188799873
   5   9
    -0.100047933182333    -0.018498800279992     0.000830885013840
     0.020489723834163    -0.110840952489924    -0.004691373498320
     0.001171652908207     0.002513009442246    -0.046420147506701
   5  10
     0.071912429942080     0.026448343621570    -0.010365171216272
     0.017065564700946    -1.070870675215781     1.175858614877326
     0.036786561802997     1.195456995087248    -1.037768086435408
   5  11
     0.067623329620551    -0.029597732753177    -0.077567525424018
    -0.045760588044263     0.022601573693998    -0.037597045373341
    -0.086081473147370    -0.034526744290118     0.009317025593887
   5  12
     0.020813920735157     0.045972353477500     0.042649638727200
     0.032076470430099     0.062343109170027    -0.072118810138095
     0.038659978502756    -0.085237711741097     0.000083827632465
   5  13
     0.022196120003750     0.047488101416306    -0.042501041633846
     0.028480708369200     0.064835086832475     0.079238026854945
    -0.038460555640588     0.089516653357062    -0.002923537151014
   5  14
     0.067620449446337    -0.037113235694474     0.083765371766102
    -0.053327323753733     0.018268016473964     0.036221357353109
     0.087821145389019     0.032399456823238    -0.004319648282368
   5  15
    -0.068634948593580    -0.031212993149613    -0.006995033067744
     0.040123243780291    -0.071283530594340    -0.004236338540276
    -0.008387062677752    -0.002546352073834    -0.056334749070865
   5  16
     0.015703248912200    -0.020489251667432     0.002866279545809
    -0.024025054013413    -0.008306516077932     0.025437758603633
     0.009775025817547     0.038204849975815     0.003412262398685
   5  17
     0.000733082604547    -0.020809065925101    -0.004768362449177
    -0.023506791575705     0.009485490839533    -0.014191428554478
    -0.005770302815643    -0.035018997457301     0.003050033712271
   5  18
    -0.007756848692635     0.012951568812015    -0.007811842650708
     0.014158081086300     0.006635499495286    -0.006321024408344
    -0.033374376872955     0.002891145104335     0.001560457544038
   5  19
     0.023019846563939    -0.011321194714341    -0.000978575977399
     0.015199842528586     0.003341744089083    -0.004145070672519
    -0.003693547317123     0.003106666350136    -0.050206774359375
   5  20
     0.002195068648962     0.035405544452121     0.016070645598967
     0.014955511310638     0.007655314715759     0.000447688184703
     0.033596174463982    -0.003992409655793     0.016900949279957
   5  21
     0.013815754217199     0.010962467767402     0.007639037894367
     0.011878707299222    -0.019130220193359     0.007489645910807
     0.006525913547679     0.007468413901786    -0.017099265223590
   5  22
    -0.007255690605999    -0.012524159972185     0.008424039312707
    -0.011624199723109    -0.008012578962232    -0.030614327844467
     0.006954633976495    -0.030490068952693    -0.013230664513472
   5  23
     0.002017022453500     0.001529910434321    -0.010087503009559
     0.002577816338379     0.017294175304203    -0.013069718264159