30
Lattice="-5.930928081939432 -1.9780643409823264 0.0002793604522244 1.9770179010527342 -5.934320207091297 0.0004704477301877 1.9767398474195603 1.9770574629017361 11.990677938490656" Properties=Z:I:1:pos:R:3:vasp_force:R:3 uuid=8239d3c6-ab1c-4f78-ad13-c8ae7753b52c vasp_virial="-0.02575869962803485 0.05719537644938723 -0.021822163893492535 0.05719537644938723 -0.1386567884192877 0.051315450582699124 -0.021822163893492535 0.051315450582699124 -0.028340130496336942" vasp_energy=-144.3339639 pbc="T T T"
      46      -3.96343863      -3.95952799       0.08331221       0.06869900       0.02228300       0.00472500 
      46      -1.97698467      -1.97827437       0.08310593      -0.01293400      -0.01386600       0.00558800 
      46      -0.00001701      -0.00018459       0.08290010      -0.00569400       0.00444600       0.00524700 
      46      -1.97695954      -5.93447936       0.08344407      -0.00554200       0.00451300       0.00514000 
      46       0.00000811      -3.95638958       0.08323824      -0.01389900      -0.01383800       0.00494100 
      46      -3.95382456      -5.93451977       2.04575346      -0.00040200      -0.00129500       0.00417000 
      46      -1.97685691      -3.95642999       2.04554763      -0.01063200       0.00243000      -0.01024600 
      46       0.00011074      -1.97834022       2.04534180      -0.01093100       0.00147000       0.01181700 
      46      -3.95384969      -1.97831478       2.04541532       0.00109000      -0.00094700      -0.00220500 
      46       0.00013587      -5.93454521       2.04567994      -0.00206000       0.00120300       0.00094000 
      46      -3.95401468      -3.95653823       3.99753441      -0.00028500      -0.00025200      -0.00044200 
      46      -1.97704703      -1.97844845       3.99732857       0.00005700      -0.00035700      -0.00143700 
      46      -0.00007937      -0.00035867       3.99712274       0.00074300       0.00062000      -0.00141200 
      46      -1.97702190      -5.93465344       3.99766671       0.00075400       0.00201200      -0.00111900 
      46      -0.00005425      -3.95656366       3.99746088       0.00137600      -0.00036300       0.00049000 
      46       1.97678748      -3.95667974       5.94916756      -0.00059500      -0.00239600      -0.00060800 
      46      -1.97717295      -3.95665430       5.94924109       0.00006800      -0.00216400      -0.00168800 
      46      -0.00020529      -1.97856452       5.94903525       0.00096900      -0.00201000      -0.00232200 
      46      -3.95416572      -1.97853909       5.94910878       0.00066900      -0.00059200      -0.00129300 
      46      -0.00018017      -5.93476952       5.94937339       0.00152900      -0.00267700      -0.00091100 
      46      -0.00015146      -0.00048404       7.91086517      -0.00027100       0.00114600      -0.00366200 
      46      -1.97709399      -5.93477881       7.91140914       0.00036600       0.00078600      -0.00423900 
      46      -0.00012634      -3.95668903       7.91120331      -0.00087500       0.00129500      -0.00456400 
      46       1.97684131      -1.97859925       7.91099748      -0.00049900       0.00162300      -0.00514800 
      46      -1.97711912      -1.97857381       7.91107100       0.00055100       0.00053300      -0.00392100 
      47       1.97680336      -3.95707145       9.99258389      -0.00005800       0.00081900       0.00043400 
      47      -1.97715707      -3.95704602       9.99265742       0.00178400      -0.00244000      -0.00247700 
      47      -0.00018942      -1.97895624       9.99245158      -0.00740800       0.00041200       0.00961700 
      47       1.97677823      -0.00086646       9.99224575      -0.00807200       0.00005900      -0.00838000 
      47      -1.97718220      -0.00084103       9.99231928       0.00150000      -0.00245200       0.00296700 
30
Lattice="-5.930928081939432 -1.9780643409823264 0.0002793604522244 1.9770179010527342 -5.934320207091297 0.0004704477301877 1.9767398474195603 1.9770574629017361 11.990677938490656" Properties=Z:I:1:pos:R:3:vasp_force:R:3 uuid=f994286e-a444-441c-9b23-cadccf70082d vasp_virial="-0.025761626420402535 0.05677099155607225 -0.01276374151549369 0.05677099155607225 -0.1388997121858059 0.05068911701601358 -0.01276374151549369 0.05068911701601358 -0.029867916112270833" vasp_energy=-144.33393098 pbc="T T T"
      46      -3.95395232      -3.95636415       0.08331177       0.00020000       0.00925900      -0.00643900 
      46      -1.97698467      -1.97827437       0.08310593      -0.00065800      -0.00053700       0.00475100 
      46      -0.00001701      -0.00018459       0.08290010      -0.00022800       0.00824300       0.01670100 
      46      -1.97695954      -5.93447936       0.08344407      -0.00322400      -0.00246600       0.00891000 
      46       0.00000811      -3.95638958       0.08323824      -0.00405600      -0.00183900       0.00165000 
      46      -3.95698527      -5.92503242       2.04575271       0.02533000      -0.07661500       0.00046100 
      46      -1.97685691      -3.95642999       2.04554763       0.00730000       0.00812600       0.00019800 
      46       0.00011074      -1.97834022       2.04534180      -0.01485500       0.01528200      -0.00038900 
      46      -3.95384969      -1.97831478       2.04541532      -0.01340400       0.01544800       0.00227500 
      46       0.00013587      -5.93454521       2.04567994       0.00640300       0.00723900       0.00133000 
      46      -3.95401468      -3.95653823       3.99753441       0.00016300       0.01195200       0.01131200 
      46      -1.97704703      -1.97844845       3.99732857      -0.00080500       0.00074400      -0.00056300 
      46      -0.00007937      -0.00035867       3.99712274       0.00041100       0.01136000      -0.01283900 
      46      -1.97702190      -5.93465344       3.99766671      -0.00284800      -0.00004700      -0.00519800 
      46      -0.00005425      -3.95656366       3.99746088      -0.00241000      -0.00146800       0.00380300 
      46       1.97678748      -3.95667974       5.94916756      -0.00110600      -0.00167400      -0.00077600 
      46      -1.97717295      -3.95665430       5.94924109       0.00086000      -0.00231500      -0.00173800 
      46      -0.00020529      -1.97856452       5.94903525       0.00053100      -0.00262800      -0.00122600 
      46      -3.95416572      -1.97853909       5.94910878       0.00024200      -0.00152700      -0.00222700 
      46      -0.00018017      -5.93476952       5.94937339       0.00220300      -0.00292300      -0.00089900 
      46      -0.00015146      -0.00048404       7.91086517      -0.00064900       0.00109800      -0.00350300 
      46      -1.97709399      -5.93477881       7.91140914       0.00041400       0.00078200      -0.00466700 
      46      -0.00012634      -3.95668903       7.91120331      -0.00060000       0.00131100      -0.00423400 
      46       1.97684131      -1.97859925       7.91099748      -0.00070200       0.00157200      -0.00513700 
      46      -1.97711912      -1.97857381       7.91107100       0.00057100       0.00060600      -0.00405700 
      47       1.97680336      -3.95707145       9.99258389       0.00013500       0.00094600       0.00044100 
      47      -1.97715707      -3.95704602       9.99265742       0.00071200      -0.00020900       0.00058200 
      47      -0.00018942      -1.97895624       9.99245158       0.00001100       0.00019600       0.00071200 
      47       1.97677823      -0.00086646       9.99224575      -0.00039500      -0.00006200       0.00093500 
      47      -1.97718220      -0.00084103       9.99231928       0.00045300       0.00015000      -0.00017400 
30
Lattice="-5.930928081939432 -1.9780643409823264 0.0002793604522244 1.9770179010527342 -5.934320207091297 0.0004704477301877 1.9767398474195603 1.9770574629017361 11.990677938490656" Properties=Z:I:1:pos:R:3:vasp_force:R:3 uuid=286e0e3e-1ced-4d61-ac06-cda90d87a441 vasp_virial="-0.01941341377488412 0.05747342172431772 -0.014724692401845624 0.05747342172431772 -0.13292612896335176 0.05385297956548587 -0.014724692401845624 0.05385297956548587 -0.03479370766709218" vasp_energy=-144.33395166 pbc="T T T"
      46      -3.95395232      -3.95636415       0.08331177       0.00021500      -0.01071200       0.01297900 
      46      -1.97698467      -1.97827437       0.08310593      -0.00028800      -0.00149500       0.00519100 
      46      -0.00001701      -0.00018459       0.08290010      -0.00038600       0.01097500       0.01747100 
      46      -1.97695954      -5.93447936       0.08344407      -0.00946400      -0.00182900       0.01283100 
      46       0.00000811      -3.95638958       0.08323824       0.01198400      -0.00109000       0.01747700 
      46      -3.95221906      -5.93291401       2.05549225      -0.01431500      -0.01131900      -0.08074000 
      46      -1.97685691      -3.95642999       2.04554763       0.00375500       0.00652700      -0.00036300 
      46       0.00011074      -1.97834022       2.04534180      -0.00143100       0.00193500      -0.00020800 
      46      -3.95384969      -1.97831478       2.04541532       0.00070200       0.00124600       0.00068500 
      46       0.00013587      -5.93454521       2.04567994       0.00168200       0.00445000       0.00039800 
      46      -3.95401468      -3.95653823       3.99753441       0.00025200       0.01419700       0.01221100 
      46      -1.97704703      -1.97844845       3.99732857      -0.00029100       0.00002400      -0.00042500 
      46      -0.00007937      -0.00035867       3.99712274      -0.00017000      -0.01009700       0.00687700 
      46      -1.97702190      -5.93465344       3.99766671       0.01455800       0.00081100       0.01150600 
      46      -0.00005425      -3.95656366       3.99746088      -0.00902400       0.00019200       0.00815800 
      46       1.97678748      -3.95667974       5.94916756      -0.00042900      -0.00258900       0.00027000 
      46      -1.97717295      -3.95665430       5.94924109       0.00086900      -0.00151100      -0.00182700 
      46      -0.00020529      -1.97856452       5.94903525       0.00053600      -0.00120100      -0.00248000 
      46      -3.95416572      -1.97853909       5.94910878       0.00101500      -0.00191200      -0.00159700 
      46      -0.00018017      -5.93476952       5.94937339       0.00019300      -0.00284700      -0.00142100 
      46      -0.00015146      -0.00048404       7.91086517      -0.00049100       0.00105200      -0.00390100 
      46      -1.97709399      -5.93477881       7.91140914       0.00019400       0.00055000      -0.00448500 
      46      -0.00012634      -3.95668903       7.91120331      -0.00067600       0.00160200      -0.00455000 
      46       1.97684131      -1.97859925       7.91099748      -0.00044500       0.00158600      -0.00501400 
      46      -1.97711912      -1.97857381       7.91107100       0.00043200       0.00056900      -0.00355900 
      47       1.97680336      -3.95707145       9.99258389       0.00008500       0.00092000       0.00063200 
      47      -1.97715707      -3.95704602       9.99265742       0.00066900       0.00000100       0.00145000 
      47      -0.00018942      -1.97895624       9.99245158       0.00014800       0.00021700       0.00110200 
      47       1.97677823      -0.00086646       9.99224575      -0.00033500      -0.00007900       0.00114700 
      47      -1.97718220      -0.00084103       9.99231928       0.00045300      -0.00017100       0.00018600 
30
Lattice="-5.930928081939432 -1.9780643409823264 0.0002793604522244 1.9770179010527342 -5.934320207091297 0.0004704477301877 1.9767398474195603 1.9770574629017361 11.990677938490656" Properties=Z:I:1:pos:R:3:vasp_force:R:3 uuid=e037100f-eea2-4ef0-ad97-f14b246db6d9 vasp_virial="-0.030854245140182177 0.05674465042476305 -0.013173492446970215 0.05674465042476305 -0.14484695427695088 0.055971977239693035 -0.013173492446970215 0.055971977239693035 -0.023066050649760552" vasp_energy=-144.33385339 pbc="T T T"
      46      -3.95395232      -3.95636415       0.08331177       0.00028600       0.00880900      -0.00321600 
      46      -1.97698467      -1.97827437       0.08310593      -0.00069600      -0.00187500       0.00434900 
      46      -0.00001701      -0.00018459       0.08290010       0.00022500      -0.01537900      -0.00660700 
      46      -1.97695954      -5.93447936       0.08344407       0.00972700      -0.00155800      -0.00346900 
      46       0.00000811      -3.95638958       0.08323824      -0.01434800      -0.00101200      -0.00636000 
      46      -3.95543006      -5.93612553       2.03601468       0.01279200       0.01491400       0.08195300 
      46      -1.97685691      -3.95642999       2.04554763      -0.00472200      -0.00155300       0.00163100 
      46       0.00011074      -1.97834022       2.04534180       0.00049100       0.00092100       0.00121700 
      46      -3.95384969      -1.97831478       2.04541532      -0.00005000       0.00303400       0.00208800 
      46       0.00013587      -5.93454521       2.04567994      -0.00405500      -0.00097800       0.00150100 
      46      -3.95401468      -3.95653823       3.99753441       0.00020000      -0.01313600      -0.01252700 
      46      -1.97704703      -1.97844845       3.99732857      -0.00060800      -0.00030800      -0.00075900 
      46      -0.00007937      -0.00035867       3.99712274       0.00102200       0.00980400      -0.00989100 
      46      -1.97702190      -5.93465344       3.99766671      -0.01314000       0.00188300      -0.01304500 
      46      -0.00005425      -3.95656366       3.99746088       0.01056800      -0.00031900      -0.00881900 
      46       1.97678748      -3.95667974       5.94916756      -0.00089300      -0.00290300      -0.00177300 
      46      -1.97717295      -3.95665430       5.94924109      -0.00088100      -0.00234800      -0.00176200 
      46      -0.00020529      -1.97856452       5.94903525       0.00151000      -0.00248100      -0.00198200 
      46      -3.95416572      -1.97853909       5.94910878       0.00037000       0.00042300      -0.00081400 
      46      -0.00018017      -5.93476952       5.94937339       0.00230700      -0.00230800      -0.00039100 
      46      -0.00015146      -0.00048404       7.91086517      -0.00009800       0.00113200      -0.00341500 
      46      -1.97709399      -5.93477881       7.91140914       0.00019700       0.00094400      -0.00420700 
      46      -0.00012634      -3.95668903       7.91120331      -0.00087400       0.00128500      -0.00456200 
      46       1.97684131      -1.97859925       7.91099748      -0.00061800       0.00153600      -0.00502300 
      46      -1.97711912      -1.97857381       7.91107100       0.00041300       0.00055000      -0.00448300 
      47       1.97680336      -3.95707145       9.99258389       0.00027500       0.00093300       0.00011400 
      47      -1.97715707      -3.95704602       9.99265742       0.00069100       0.00002200      -0.00026300 
      47      -0.00018942      -1.97895624       9.99245158      -0.00007100       0.00016400       0.00040100 
      47       1.97677823      -0.00086646       9.99224575      -0.00045600      -0.00030700       0.00049900 
      47      -1.97718220      -0.00084103       9.99231928       0.00043400       0.00011200      -0.00038000 
30
Lattice="-5.930928081939432 -1.9780643409823264 0.0002793604522244 1.9770179010527342 -5.934320207091297 0.0004704477301877 1.9767398474195603 1.9770574629017361 11.990677938490656" Properties=Z:I:1:pos:R:3:vasp_force:R:3 uuid=79d75fd1-c5a0-4e9d-ae22-abcf57f9719e vasp_virial="-0.025647481518062645 0.056080268557297544 -0.014771521079728652 0.056080268557297544 -0.13990067517555568 0.05408712295490103 -0.014771521079728652 0.05408712295490103 -0.028825978029373388" vasp_energy=-144.3338951 pbc="T T T"
      46      -3.95395232      -3.95636415       0.08331177      -0.00056100      -0.00097500       0.00492700 
      46      -1.97698467      -1.97827437       0.08310593      -0.00001800      -0.00215500       0.00574200 
      46      -0.00001701      -0.00018459       0.08290010       0.00021800      -0.00147500       0.00560000 
      46      -1.97695954      -5.93447936       0.08344407       0.00026500      -0.00121400       0.00491700 
      46       0.00000811      -3.95638958       0.08323824      -0.00041800      -0.00144100       0.00488100 
      46      -3.95382456      -5.93451977       2.04575346       0.00020400      -0.00147700      -0.00357200 
      46      -1.97685691      -3.95642999       2.04554763      -0.01193300       0.00238700       0.01186700 
      46       0.00011074      -1.97834022       2.04534180      -0.01218600       0.00137900      -0.01105300 
      46      -3.95384969      -1.97831478       2.04541532       0.00168600      -0.00125300       0.00554400 
      46       0.00013587      -5.93454521       2.04567994      -0.00204500       0.00148900       0.00092100 
      46      -3.96350099      -3.95970207       3.99753485       0.08121600       0.02739300      -0.00116900 
      46      -1.97704703      -1.97844845       3.99732857      -0.01396700      -0.01476000      -0.00055500 
      46      -0.00007937      -0.00035867       3.99712274      -0.00532000       0.00841800      -0.00157200 
      46      -1.97702190      -5.93465344       3.99766671      -0.00518500       0.00962700      -0.00094900 
      46      -0.00005425      -3.95656366       3.99746088      -0.01312500      -0.01525600      -0.00039500 
      46       1.97678748      -3.95667974       5.94916756       0.00071700      -0.00614600       0.00343900 
      46      -1.97717295      -3.95665430       5.94924109      -0.01144500      -0.00204100      -0.01296100 
      46      -0.00020529      -1.97856452       5.94903525      -0.01069300      -0.00190300       0.00939200 
      46      -3.95416572      -1.97853909       5.94910878       0.00201900      -0.00404000      -0.00529100 
      46      -0.00018017      -5.93476952       5.94937339       0.00039300      -0.00282000      -0.00087000 
      46      -0.00015146      -0.00048404       7.91086517       0.00000000       0.00157300      -0.00351900 
      46      -1.97709399      -5.93477881       7.91140914       0.00049900       0.00121100      -0.00438700 
      46      -0.00012634      -3.95668903       7.91120331      -0.00030700       0.00097500      -0.00357900 
      46       1.97684131      -1.97859925       7.91099748      -0.00133700       0.00169300      -0.00506400 
      46      -1.97711912      -1.97857381       7.91107100       0.00091600       0.00017300      -0.00491800 
      47       1.97680336      -3.95707145       9.99258389       0.00009000       0.00104400       0.00034800 
      47      -1.97715707      -3.95704602       9.99265742       0.00053500      -0.00013000       0.00064000 
      47      -0.00018942      -1.97895624       9.99245158      -0.00003100      -0.00002900       0.00089000 
      47       1.97677823      -0.00086646       9.99224575      -0.00054000      -0.00033300       0.00087400 
      47      -1.97718220      -0.00084103       9.99231928       0.00035400       0.00008700      -0.00012700 
30
Lattice="-5.930928081939432 -1.9780643409823264 0.0002793604522244 1.9770179010527342 -5.934320207091297 0.0004704477301877 1.9767398474195603 1.9770574629017361 11.990677938490656" Properties=Z:I:1:pos:R:3:vasp_force:R:3 uuid=e87ebcd5-5530-46a2-af9b-57c2e5a21eaa vasp_virial="-0.02488066191772801 0.05675635759423381 -0.014730545986580999 0.05675635759423381 -0.1390958072744411 0.053999319183870347 -0.014730545986580999 0.053999319183870347 -0.027889404471712766" vasp_energy=-144.33389549 pbc="T T T"
      46      -3.95395232      -3.95636415       0.08331177       0.00106000      -0.00123400       0.00506300 
      46      -1.97698467      -1.97827437       0.08310593      -0.00094300      -0.00120900       0.00383000 
      46      -0.00001701      -0.00018459       0.08290010      -0.00038400      -0.00238300       0.00572900 
      46      -1.97695954      -5.93447936       0.08344407      -0.00030200      -0.00217300       0.00467900 
      46       0.00000811      -3.95638958       0.08323824      -0.00138900      -0.00066500       0.00669700 
      46      -3.95382456      -5.93451977       2.04575346      -0.00247500       0.00515700       0.00467800 
      46      -1.97685691      -3.95642999       2.04554763       0.01124300       0.00256300      -0.01093100 
      46       0.00011074      -1.97834022       2.04534180       0.01095200       0.00155900       0.01170700 
      46      -3.95384969      -1.97831478       2.04541532      -0.00101700       0.00552800      -0.00278200 
      46       0.00013587      -5.93454521       2.04567994      -0.00030400       0.00198400       0.00094300 
      46      -3.94452837      -3.95337438       3.99753396      -0.08032400      -0.02717100      -0.00054600 
      46      -1.97704703      -1.97844845       3.99732857       0.01359000       0.01505800      -0.00058500 
      46      -0.00007937      -0.00035867       3.99712274       0.00608700      -0.00827000      -0.00159700 
      46      -1.97702190      -5.93465344       3.99766671       0.00622200      -0.00705600      -0.00097500 
      46      -0.00005425      -3.95656366       3.99746088       0.01443200       0.01456100      -0.00042100 
      46       1.97678748      -3.95667974       5.94916756      -0.00199100       0.00063900      -0.00489600 
      46      -1.97717295      -3.95665430       5.94924109       0.01170600      -0.00186300       0.00980200 
      46      -0.00020529      -1.97856452       5.94903525       0.01249700      -0.00172900      -0.01342300 
      46      -3.95416572      -1.97853909       5.94910878      -0.00066500       0.00259900       0.00295800 
      46      -0.00018017      -5.93476952       5.94937339       0.00213400      -0.00232300      -0.00085300 
      46      -0.00015146      -0.00048404       7.91086517      -0.00056700       0.00061600      -0.00375400 
      46      -1.97709399      -5.93477881       7.91140914      -0.00010300       0.00030400      -0.00425700 
      46      -0.00012634      -3.95668903       7.91120331      -0.00123400       0.00191900      -0.00549400 
      46       1.97684131      -1.97859925       7.91099748       0.00028600       0.00143100      -0.00492600 
      46      -1.97711912      -1.97857381       7.91107100      -0.00005700       0.00094900      -0.00309500 
      47       1.97680336      -3.95707145       9.99258389       0.00028100       0.00081700       0.00044100 
      47      -1.97715707      -3.95704602       9.99265742       0.00083400       0.00015800       0.00057900 
      47      -0.00018942      -1.97895624       9.99245158       0.00012600       0.00041700       0.00065100 
      47       1.97677823      -0.00086646       9.99224575      -0.00024200      -0.00004400       0.00081300 
      47      -1.97718220      -0.00084103       9.99231928       0.00054400      -0.00013900      -0.00003300 
30
Lattice="-5.930928081939432 -1.9780643409823264 0.0002793604522244 1.9770179010527342 -5.934320207091297 0.0004704477301877 1.9767398474195603 1.9770574629017361 11.990677938490656" Properties=Z:I:1:pos:R:3:vasp_force:R:3 uuid=05488469-45ba-4b1e-beaa-9f69b8a36955 vasp_virial="-0.02563577434859189 0.05554759234637806 -0.014130553551204664 0.05554759234637806 -0.1397543355571712 0.05446175237796527 -0.014130553551204664 0.05446175237796527 -0.028545005962075203" vasp_energy=-144.33390209 pbc="T T T"
      46      -3.95395232      -3.95636415       0.08331177       0.00018000      -0.00191300       0.00498000 
      46      -1.97698467      -1.97827437       0.08310593      -0.00104800      -0.00134400       0.00479800 
      46      -0.00001701      -0.00018459       0.08290010       0.00030600      -0.00140300       0.00662400 
      46      -1.97695954      -5.93447936       0.08344407       0.00036100      -0.00121600       0.00385500 
      46       0.00000811      -3.95638958       0.08323824      -0.00138600      -0.00069800       0.00571200 
      46      -3.95382456      -5.93451977       2.04575346      -0.00108900      -0.00980100      -0.01107000 
      46      -1.97685691      -3.95642999       2.04554763       0.00284300       0.00393500      -0.00357700 
      46       0.00011074      -1.97834022       2.04534180       0.00280800       0.00289700       0.00472200 
      46      -3.95384969      -1.97831478       2.04541532       0.00038100      -0.00920800       0.01257000 
      46       0.00013587      -5.93454521       2.04567994      -0.00091000       0.00084600       0.00090500 
      46      -3.95085397      -3.96602558       3.99753516      -0.02570800       0.07968700      -0.00051100 
      46      -1.97704703      -1.97844845       3.99732857      -0.00877200      -0.00580600      -0.00052600 
      46      -0.00007937      -0.00035867       3.99712274       0.01498400      -0.01350900      -0.00160700 
      46      -1.97702190      -5.93465344       3.99766671       0.01558300      -0.01264300      -0.00098700 
      46      -0.00005425      -3.95656366       3.99746088      -0.00758100      -0.00584200      -0.00036400 
      46       1.97678748      -3.95667974       5.94916756      -0.00066900      -0.01436500       0.01083900 
      46      -1.97717295      -3.95665430       5.94924109       0.00330100      -0.00044800       0.00245200 
      46      -0.00020529      -1.97856452       5.94903525       0.00434800      -0.00043100      -0.00642900 
      46      -3.95416572      -1.97853909       5.94910878       0.00079700      -0.01211800      -0.01242800 
      46      -0.00018017      -5.93476952       5.94937339       0.00152700      -0.00346300      -0.00088800 
      46      -0.00015146      -0.00048404       7.91086517       0.00009400       0.00158600      -0.00458600 
      46      -1.97709399      -5.93477881       7.91140914       0.00058900       0.00127100      -0.00336500 
      46      -0.00012634      -3.95668903       7.91120331      -0.00132400       0.00178600      -0.00451900 
      46       1.97684131      -1.97859925       7.91099748      -0.00059600       0.00075400      -0.00501300 
      46      -1.97711912      -1.97857381       7.91107100      -0.00006600       0.00091500      -0.00408200 
      47       1.97680336      -3.95707145       9.99258389       0.00016100       0.00092900       0.00043000 
      47      -1.97715707      -3.95704602       9.99265742       0.00075400      -0.00010700       0.00050300 
      47      -0.00018942      -1.97895624       9.99245158       0.00002800       0.00004000       0.00087200 
      47       1.97677823      -0.00086646       9.99224575      -0.00032100      -0.00030700       0.00073400 
      47      -1.97718220      -0.00084103       9.99231928       0.00042600      -0.00002400      -0.00004200 
30
Lattice="-5.930928081939432 -1.9780643409823264 0.0002793604522244 1.9770179010527342 -5.934320207091297 0.0004704477301877 1.9767398474195603 1.9770574629017361 11.990677938490656" Properties=Z:I:1:pos:R:3:vasp_force:R:3 uuid=36c01bfe-3b63-417e-9b06-208f19f73a7e vasp_virial="-0.02503870870558324 0.05602465950231145 -0.014291527131427582 0.05602465950231145 -0.1388441031308198 0.053738834663145975 -0.014291527131427582 0.053738834663145975 -0.028951830101184035" vasp_energy=-144.33389718 pbc="T T T"
      46      -3.95395232      -3.95636415       0.08331177       0.00031800      -0.00028900       0.00500300 
      46      -1.97698467      -1.97827437       0.08310593       0.00007200      -0.00201200       0.00475900 
      46      -0.00001701      -0.00018459       0.08290010      -0.00047500      -0.00243400       0.00470200 
      46      -1.97695954      -5.93447936       0.08344407      -0.00039700      -0.00217700       0.00573700 
      46       0.00000811      -3.95638958       0.08323824      -0.00040900      -0.00139900       0.00585400 
      46      -3.95382456      -5.93451977       2.04575346      -0.00125800       0.01323700       0.01180200 
      46      -1.97685691      -3.95642999       2.04554763      -0.00379000       0.00110100       0.00487300 
      46       0.00011074      -1.97834022       2.04534180      -0.00378800      -0.00002400      -0.00371000 
      46      -3.95384969      -1.97831478       2.04541532       0.00036400       0.01374400      -0.01018300 
      46       0.00013587      -5.93454521       2.04567994      -0.00143800       0.00263400       0.00095100 
      46      -3.95717539      -3.94705087       3.99753365       0.02663700      -0.07968800      -0.00095700 
      46      -1.97704703      -1.97844845       3.99732857       0.00804500       0.00565200      -0.00062200 
      46      -0.00007937      -0.00035867       3.99712274      -0.01468300       0.01401100      -0.00157000 
      46      -1.97702190      -5.93465344       3.99766671      -0.01408100       0.01487300      -0.00094800 
      46      -0.00005425      -3.95656366       3.99746088       0.00923700       0.00561600      -0.00046000 
      46       1.97678748      -3.95667974       5.94916756      -0.00068400       0.00860900      -0.01193600 
      46      -1.97717295      -3.95665430       5.94924109      -0.00329700      -0.00337400      -0.00598600 
      46      -0.00020529      -1.97856452       5.94903525      -0.00228900      -0.00326900       0.00202100 
      46      -3.95416572      -1.97853909       5.94910878       0.00062900       0.01093700       0.01045200 
      46      -0.00018017      -5.93476952       5.94937339       0.00099800      -0.00167400      -0.00084500 
      46      -0.00015146      -0.00048404       7.91086517      -0.00066400       0.00062300      -0.00269900 