  30
   1   1
     7.534596522788802     0.047694404695668    -0.225766287481387
     0.059050538715452     7.572218178690066     0.179669939881775
    -0.250593518684732     0.162123285955613     7.502451000059847
   1   2
    -1.044456499704626    -1.039217779325738     0.019277219562835
    -1.157816514493954    -1.063055070657050     0.002191038734369
     0.005501533512108    -0.015204870415076     0.097176298852420
   1   3
     0.106592852434579    -0.024848401784379     0.020937333232230
    -0.002913343268140     0.115699498549732    -0.022204612500190
     0.008833196578343    -0.001413814879808     0.073683270885949
   1   4
     0.106548271085706    -0.002496180515196     0.008070253934416
    -0.025229140791054     0.115775968195713    -0.002234697211758
     0.021785183189905    -0.021259078711531     0.073879862822211
   1   5
    -1.044435595337938    -1.157736246162968     0.004676655358805
    -1.040013513396886    -1.063022366066324    -0.015440043115381
     0.019783837433979     0.002808806028610     0.097559200432241
   1   6
    -0.948897184428043    -0.008882552168020     1.184884206543218
    -0.028576698198824     0.078123365203308     0.011573980207503
     1.177500348363093     0.060711305227747    -0.999552087932765
   1   7
     0.089048240069043    -0.035792706015124    -0.003565981667209
    -0.011997637663689    -0.938795958346200    -1.195464788886717
    -0.049834603187222    -1.196171309882055    -0.984353076399746
   1   8
    -0.033798901230184    -0.052625441552826    -0.008837298443895
    -0.051709864676850    -0.065490973274536    -0.065652279404960
    -0.049025789259715    -0.049733097037197    -0.027051131323585
   1   9
    -0.023897773781915     0.047785968842473    -0.025320597956043
     0.059828964850896    -0.068238380157136     0.022677450520024
    -0.013924570606354     0.020884903309443    -0.096175232142707
   1  10
    -0.114553233071100     0.007180647633088     0.042526023460738
    -0.010960988124970    -0.030599889971157     0.043370013981204
     0.027616814694849     0.082898860604559    -0.035031804990533
   1  11
    -0.010259958901855     0.050361460976901     0.062510918046401
     0.062492586499119    -0.029528071279342    -0.054388386537186
     0.048062501358709    -0.032931017218014    -0.064129225612499
   1  12
    -0.065807188271057    -0.022926302882138    -0.022369286148890
    -0.027321377045665     0.037410806436529     0.000085173009646
     0.003548903723716     0.011597404810381     0.064974949380408
   1  13
    -0.792421483915726    -0.000623107333560    -1.017595442323933
     0.017994246458926     0.093070981922361    -0.019460417236112
    -0.891619049154871    -0.024419844547272    -0.882410382104982
   1  14
     0.032861193421785     0.046471415890086    -0.023893486020978
     0.040845283865590    -0.819738714416199     1.045500271685331
    -0.032499796526127     0.920643560414450    -0.963033200040075
   1  15
     0.097324511657959    -0.025416383016432     0.004954434160758
    -0.051773957853486    -0.022906721270887     0.033936659946408
    -0.000376141690315     0.014239732890458     0.089109021951771
   1  16
     0.011140155213691     0.002282909807832    -0.013317477288817
     0.009572835522062    -0.057107621404016    -0.002993278804269
     0.005386722613249    -0.012308751423030    -0.007858065288206
   1  17
    -0.840401909953424     0.880382316955910     0.033521092520906
     0.858810677883791    -0.858861256169455    -0.013291997345571
    -0.003653024414383     0.023408394968705     0.049089415923978
   1  18
    -0.188151992392259     0.001000067598496     0.029227072854110
     0.002978791592468    -0.013389973457741    -0.006422815627490
    -0.014973434521138     0.017392686147741     0.024627131188531
   1  19
    -1.162935429128910     1.295172041014250    -0.035965337276347
     1.294247396110859    -1.175330716274081     0.047033715644576
     0.011271006810128    -0.012928356365910     0.132510017474316
   1  20
     0.028234230251080    -0.006438447710457    -0.024642317574595
     0.008049950273598    -0.048288841969113    -0.011206781479661
     0.003871337447976    -0.004328979398082     0.018068326747277
   1  21
    -0.119967924102883     0.001547192717429    -0.003091200556394
     0.000998139491522    -0.001727301007004    -0.079882659943677
    -0.002260329561477    -0.079617026446044     0.018701786987783
   1  22
    -0.015345171158836     0.083377048586947     0.049501464185271
     0.082959969463228    -0.077804284788919    -0.040296857594571
     0.050350402861305    -0.039821885707636    -0.024569780612723
   1  23
     0.029204347993309    -0.059340756327973     0.061754756332305
    -0.059745216290092    -0.044540160770929     0.041114223746874
     0.062351840579124     0.041988370786819     0.044081269446332
   1  24
     0.085039446412991    -0.007669837503892    -0.044249144282117
    -0.008125557524092    -0.956670703152309     1.219656613641226
    -0.043488903932404     1.220830958813593    -1.114996762470990
   1  25
    -0.938337538538914    -0.019753794053408    -1.176155104842844
    -0.020018531645103     0.102201238693197    -0.018963877268435
    -1.175107460230364    -0.018444006966935    -1.041282787598709
   1  26
     0.158427348557312    -0.005737133131624     0.016981897630201
     0.012222073890201    -0.910064454461811    -1.119755711894061
     0.020962822559813    -1.075784245603874    -0.950041755444216
   1  27
    -0.911207922851230     0.007745816433235     1.116887178315152
     0.002196443475252     0.151925811068153    -0.010975221803449
     1.081186417514678    -0.018651325307304    -0.968129205720003
   1  28
    -0.034454387326229    -0.003939452776473     0.006545043037111
    -0.003595341245317    -0.006110739235877     0.039953542155732
     0.006743444818809     0.030916851677025    -0.024817141995306
   1  29
     0.022023174255227     0.021923158452382    -0.013411216870907
     0.011537493407833    -0.007802903141258     0.009883746474079
    -0.003495214072154     0.016989020269908    -0.067059885449592
   1  30
    -0.011711201249148    -0.019479926054468    -0.024075370811665
    -0.023988267682277    -0.007349990275831    -0.018012508701353
    -0.023903275208367    -0.024417276058205    -0.035421017889680
   2   1
    -1.044435595337939    -1.157736246162968     0.004676655358805
    -1.040013513396886    -1.063022366066324    -0.015440043115381
     0.019783837433979     0.002808806028610     0.097559200432241
   2   2
     7.534596522788806     0.047694404695667    -0.225766287481387
     0.059050538715452     7.572218178690064     0.179669939881774
    -0.250593518684732     0.162123285955612     7.502451000059847
   2   3
    -1.044456499704626    -1.039217779325738     0.019277219562835
    -1.157816514493954    -1.063055070657050     0.002191038734369
     0.005501533512108    -0.015204870415076     0.097176298852420
   2   4
     0.106592852434579    -0.024848401784379     0.020937333232230
    -0.002913343268140     0.115699498549732    -0.022204612500190
     0.008833196578343    -0.001413814879808     0.073683270885949
   2   5
     0.106548271085706    -0.002496180515196     0.008070253934416
    -0.025229140791054     0.115775968195713    -0.002234697211758
     0.021785183189905    -0.021259078711531     0.073879862822211
   2   6
    -0.114553233071100     0.007180647633088     0.042526023460738
    -0.010960988124970    -0.030599889971157     0.043370013981204
     0.027616814694849     0.082898860604559    -0.035031804990533
   2   7
    -0.948897184428044    -0.008882552168020     1.184884206543219
    -0.028576698198824     0.078123365203308     0.011573980207503
     1.177500348363093     0.060711305227748    -0.999552087932765
   2   8
     0.089048240069043    -0.035792706015124    -0.003565981667209
    -0.011997637663689    -0.938795958346199    -1.195464788886716
    -0.049834603187222    -1.196171309882054    -0.984353076399746
   2   9
    -0.033798901230184    -0.052625441552826    -0.008837298443895
    -0.051709864676850    -0.065490973274536    -0.065652279404960
    -0.049025789259715    -0.049733097037197    -0.027051131323585
   2  10
    -0.023897773781915     0.047785968842473    -0.025320597956043
     0.059828964850896    -0.068238380157136     0.022677450520024
    -0.013924570606354     0.020884903309443    -0.096175232142707
   2  11
     0.097324511657959    -0.025416383016432     0.004954434160758
    -0.051773957853486    -0.022906721270887     0.033936659946408
    -0.000376141690315     0.014239732890458     0.089109021951771
   2  12
    -0.010259958901855     0.050361460976901     0.062510918046401
     0.062492586499119    -0.029528071279342    -0.054388386537186
     0.048062501358709    -0.032931017218014    -0.064129225612499
   2  13
    -0.065807188271058    -0.022926302882138    -0.022369286148890
    -0.027321377045664     0.037410806436529     0.000085173009646
     0.003548903723716     0.011597404810381     0.064974949380408
   2  14
    -0.792421483915726    -0.000623107333560    -1.017595442323933
     0.017994246458926     0.093070981922361    -0.019460417236111
    -0.891619049154871    -0.024419844547272    -0.882410382104982
   2  15
     0.032861193421785     0.046471415890086    -0.023893486020978
     0.040845283865590    -0.819738714416199     1.045500271685330
    -0.032499796526127     0.920643560414450    -0.963033200040075
   2  16
     0.028234230251080    -0.006438447710457    -0.024642317574595
     0.008049950273598    -0.048288841969113    -0.011206781479661
     0.003871337447976    -0.004328979398082     0.018068326747277
   2  17
     0.011140155213691     0.002282909807832    -0.013317477288817
     0.009572835522062    -0.057107621404016    -0.002993278804269
     0.005386722613249    -0.012308751423030    -0.007858065288206
   2  18
    -0.840401909953424     0.880382316955910     0.033521092520906
     0.858810677883791    -0.858861256169455    -0.013291997345571
    -0.003653024414383     0.023408394968706     0.049089415923978
   2  19
    -0.188151992392259     0.001000067598496     0.029227072854110
     0.002978791592468    -0.013389973457741    -0.006422815627490
    -0.014973434521138     0.017392686147741     0.024627131188531
   2  20
    -1.162935429128911     1.295172041014250    -0.035965337276347
     1.294247396110859    -1.175330716274081     0.047033715644576
     0.011271006810128    -0.012928356365910     0.132510017474316
   2  21
    -0.938337538538915    -0.019753794053408    -1.176155104842844
    -0.020018531645103     0.102201238693197    -0.018963877268434
    -1.175107460230365    -0.018444006966935    -1.041282787598709
   2  22
    -0.119967924102883     0.001547192717429    -0.003091200556394
     0.000998139491522    -0.001727301007004    -0.079882659943677
    -0.002260329561477    -0.079617026446043     0.018701786987783
   2  23
    -0.015345171158836     0.083377048586947     0.049501464185271
     0.082959969463228    -0.077804284788919    -0.040296857594571
     0.050350402861305    -0.039821885707636    -0.024569780612723
   2  24
     0.029204347993309    -0.059340756327973     0.061754756332305
    -0.059745216290092    -0.044540160770929     0.041114223746874
     0.062351840579124     0.041988370786819     0.044081269446332
   2  25
     0.085039446412991    -0.007669837503892    -0.044249144282117
    -0.008125557524092    -0.956670703152309     1.219656613641226
    -0.043488903932404     1.220830958813593    -1.114996762470990
   2  26
    -0.011711201249148    -0.019479926054468    -0.024075370811665
    -0.023988267682277    -0.007349990275831    -0.018012508701353
    -0.023903275208367    -0.024417276058205    -0.035421017889680
   2  27
     0.158427348557312    -0.005737133131624     0.016981897630201
     0.012222073890201    -0.910064454461811    -1.119755711894061
     0.020962822559813    -1.075784245603874    -0.950041755444216
   2  28
    -0.911207922851231     0.007745816433235     1.116887178315152
     0.002196443475252     0.151925811068153    -0.010975221803449
     1.081186417514678    -0.018651325307304    -0.968129205720003
   2  29
    -0.034454387326229    -0.003939452776473     0.006545043037111
    -0.003595341245317    -0.006110739235877     0.039953542155732
     0.006743444818809     0.030916851677025    -0.024817141995306
   2  30
     0.022023174255227     0.021923158452382    -0.013411216870907
     0.011537493407833    -0.007802903141258     0.009883746474079
    -0.003495214072154     0.016989020269908    -0.067059885449592
   3   1
     0.106548271085706    -0.002496180515196     0.008070253934416
    -0.025229140791054     0.115775968195713    -0.002234697211758
     0.021785183189905    -0.021259078711531     0.073879862822211
   3   2
    -1.044435595337939    -1.157736246162968     0.004676655358805
    -1.040013513396886    -1.063022366066324    -0.015440043115381
     0.019783837433979     0.002808806028610     0.097559200432241
   3   3
     7.534596522788806     0.047694404695667    -0.225766287481387
     0.059050538715452     7.572218178690064     0.179669939881774
    -0.250593518684732     0.162123285955612     7.502451000059847
   3   4
    -1.044456499704626    -1.039217779325738     0.019277219562835
    -1.157816514493954    -1.063055070657050     0.002191038734369
     0.005501533512108    -0.015204870415076     0.097176298852420
   3   5
     0.106592852434579    -0.024848401784379     0.020937333232230
    -0.002913343268140     0.115699498549732    -0.022204612500190
     0.008833196578343    -0.001413814879808     0.073683270885949
   3   6
    -0.023897773781915     0.047785968842473    -0.025320597956043
     0.059828964850896    -0.068238380157136     0.022677450520024
    -0.013924570606354     0.020884903309443    -0.096175232142707
   3   7
    -0.114553233071100     0.007180647633088     0.042526023460738
    -0.010960988124970    -0.030599889971157     0.043370013981204
     0.027616814694849     0.082898860604559    -0.035031804990533
   3   8
    -0.948897184428044    -0.008882552168020     1.184884206543219
    -0.028576698198824     0.078123365203308     0.011573980207503
     1.177500348363093     0.060711305227748    -0.999552087932765
   3   9
     0.089048240069043    -0.035792706015124    -0.003565981667209
    -0.011997637663689    -0.938795958346199    -1.195464788886716
    -0.049834603187222    -1.196171309882054    -0.984353076399746
   3  10
    -0.033798901230184    -0.052625441552826    -0.008837298443895
    -0.051709864676850    -0.065490973274536    -0.065652279404960
    -0.049025789259715    -0.049733097037197    -0.027051131323585
   3  11
     0.032861193421785     0.046471415890086    -0.023893486020978
     0.040845283865590    -0.819738714416199     1.045500271685330
    -0.032499796526127     0.920643560414450    -0.963033200040075
   3  12
     0.097324511657959    -0.025416383016432     0.004954434160758
    -0.051773957853486    -0.022906721270887     0.033936659946408
    -0.000376141690315     0.014239732890458     0.089109021951771
   3  13
    -0.010259958901855     0.050361460976901     0.062510918046401
     0.062492586499119    -0.029528071279342    -0.054388386537186
     0.048062501358709    -0.032931017218014    -0.064129225612499
   3  14
    -0.065807188271058    -0.022926302882138    -0.022369286148890
    -0.027321377045664     0.037410806436529     0.000085173009646
     0.003548903723716     0.011597404810381     0.064974949380408
   3  15
    -0.792421483915726    -0.000623107333560    -1.017595442323933
     0.017994246458926     0.093070981922361    -0.019460417236111
    -0.891619049154871    -0.024419844547272    -0.882410382104982
   3  16
    -1.162935429128911     1.295172041014250    -0.035965337276347
     1.294247396110859    -1.175330716274081     0.047033715644576
     0.011271006810128    -0.012928356365910     0.132510017474316
   3  17
     0.028234230251080    -0.006438447710457    -0.024642317574595
     0.008049950273598    -0.048288841969113    -0.011206781479661
     0.003871337447976    -0.004328979398082     0.018068326747277
   3  18
     0.011140155213691     0.002282909807832    -0.013317477288817
     0.009572835522062    -0.057107621404016    -0.002993278804269
     0.005386722613249    -0.012308751423030    -0.007858065288206
   3  19
    -0.840401909953424     0.880382316955910     0.033521092520906
     0.858810677883791    -0.858861256169455    -0.013291997345571
    -0.003653024414383     0.023408394968706     0.049089415923978
   3  20
    -0.188151992392259     0.001000067598496     0.029227072854110
     0.002978791592468    -0.013389973457741    -0.006422815627490
    -0.014973434521138     0.017392686147741     0.024627131188531
   3  21
     0.085039446412991    -0.007669837503892    -0.044249144282117
    -0.008125557524092    -0.956670703152309     1.219656613641226
    -0.043488903932404     1.220830958813593    -1.114996762470990
   3  22
    -0.938337538538915    -0.019753794053408    -1.176155104842844
    -0.020018531645103     0.102201238693197    -0.018963877268434
    -1.175107460230365    -0.018444006966935    -1.041282787598709
   3  23
    -0.119967924102883     0.001547192717429    -0.003091200556394
     0.000998139491522    -0.001727301007004    -0.079882659943677
    -0.002260329561477    -0.079617026446043     0.018701786987783
   3  24
    -0.015345171158836     0.083377048586947     0.049501464185271
     0.082959969463228    -0.077804284788919    -0.040296857594571
     0.050350402861305    -0.039821885707636    -0.024569780612723
   3  25
     0.029204347993309    -0.059340756327973     0.061754756332305
    -0.059745216290092    -0.044540160770929     0.041114223746874
     0.062351840579124     0.041988370786819     0.044081269446332
   3  26
     0.022023174255227     0.021923158452382    -0.013411216870907
     0.011537493407833    -0.007802903141258     0.009883746474079
    -0.003495214072154     0.016989020269908    -0.067059885449592
   3  27
    -0.011711201249148    -0.019479926054468    -0.024075370811665
    -0.023988267682277    -0.007349990275831    -0.018012508701353
    -0.023903275208367    -0.024417276058205    -0.035421017889680
   3  28
     0.158427348557312    -0.005737133131624     0.016981897630201
     0.012222073890201    -0.910064454461811    -1.119755711894061
     0.020962822559813    -1.075784245603874    -0.950041755444216
   3  29
    -0.911207922851231     0.007745816433235     1.116887178315152
     0.002196443475252     0.151925811068153    -0.010975221803449
     1.081186417514678    -0.018651325307304    -0.968129205720003
   3  30
    -0.034454387326229    -0.003939452776473     0.006545043037111
    -0.003595341245317    -0.006110739235877     0.039953542155732
     0.006743444818809     0.030916851677025    -0.024817141995306
   4   1
     0.106592852434579    -0.024848401784379     0.020937333232230
    -0.002913343268140     0.115699498549732    -0.022204612500190
     0.008833196578343    -0.001413814879808     0.073683270885949
   4   2
     0.106548271085706    -0.002496180515196     0.008070253934416
    -0.025229140791054     0.115775968195713    -0.002234697211758
     0.021785183189905    -0.021259078711531     0.073879862822211
   4   3
    -1.044435595337939    -1.157736246162968     0.004676655358805
    -1.040013513396886    -1.063022366066324    -0.015440043115381
     0.019783837433979     0.002808806028610     0.097559200432241
   4   4
     7.534596522788806     0.047694404695667    -0.225766287481387
     0.059050538715452     7.572218178690064     0.179669939881774
    -0.250593518684732     0.162123285955612     7.502451000059847
   4   5
    -1.044456499704626    -1.039217779325738     0.019277219562835
    -1.157816514493954    -1.063055070657050     0.002191038734369
     0.005501533512108    -0.015204870415076     0.097176298852420
   4   6
    -0.033798901230184    -0.052625441552826    -0.008837298443895
    -0.051709864676850    -0.065490973274536    -0.065652279404960
    -0.049025789259715    -0.049733097037197    -0.027051131323585
   4   7
    -0.023897773781915     0.047785968842473    -0.025320597956043
     0.059828964850896    -0.068238380157136     0.022677450520024
    -0.013924570606354     0.020884903309443    -0.096175232142707
   4   8
    -0.114553233071100     0.007180647633088     0.042526023460738
    -0.010960988124970    -0.030599889971157     0.043370013981204
     0.027616814694849     0.082898860604559    -0.035031804990533
   4   9
    -0.948897184428044    -0.008882552168020     1.184884206543219
    -0.028576698198824     0.078123365203308     0.011573980207503
     1.177500348363093     0.060711305227748    -0.999552087932765
   4  10
     0.089048240069043    -0.035792706015124    -0.003565981667209
    -0.011997637663689    -0.938795958346199    -1.195464788886716
    -0.049834603187222    -1.196171309882054    -0.984353076399746
   4  11
    -0.792421483915726    -0.000623107333560    -1.017595442323933
     0.017994246458926     0.093070981922361    -0.019460417236111
    -0.891619049154871    -0.024419844547272    -0.882410382104982
   4  12
     0.032861193421785     0.046471415890086    -0.023893486020978
     0.040845283865590    -0.819738714416199     1.045500271685330
    -0.032499796526127     0.920643560414450    -0.963033200040075
   4  13
     0.097324511657959    -0.025416383016432     0.004954434160758
    -0.051773957853486    -0.022906721270887     0.033936659946408
    -0.000376141690315     0.014239732890458     0.089109021951771
   4  14
    -0.010259958901855     0.050361460976901     0.062510918046401
     0.062492586499119    -0.029528071279342    -0.054388386537186
     0.048062501358709    -0.032931017218014    -0.064129225612499
   4  15
    -0.065807188271058    -0.022926302882138    -0.022369286148890
    -0.027321377045664     0.037410806436529     0.000085173009646
     0.003548903723716     0.011597404810381     0.064974949380408
   4  16
    -0.188151992392259     0.001000067598496     0.029227072854110
     0.002978791592468    -0.013389973457741    -0.006422815627490
    -0.014973434521138     0.017392686147741     0.024627131188531
   4  17
    -1.162935429128911     1.295172041014250    -0.035965337276347
     1.294247396110859    -1.175330716274081     0.047033715644576
     0.011271006810128    -0.012928356365910     0.132510017474316
   4  18
     0.028234230251080    -0.006438447710457    -0.024642317574595
     0.008049950273598    -0.048288841969113    -0.011206781479661
     0.003871337447976    -0.004328979398082     0.018068326747277
   4  19
     0.011140155213691     0.002282909807832    -0.013317477288817
     0.009572835522062    -0.057107621404016    -0.002993278804269
     0.005386722613249    -0.012308751423030    -0.007858065288206
   4  20
    -0.840401909953424     0.880382316955910     0.033521092520906
     0.858810677883791    -0.858861256169455    -0.013291997345571
    -0.003653024414383     0.023408394968706     0.049089415923978
   4  21
     0.029204347993309    -0.059340756327973     0.061754756332305
    -0.059745216290092    -0.044540160770929     0.041114223746874
     0.062351840579124     0.041988370786819     0.044081269446332
   4  22
     0.085039446412991    -0.007669837503892    -0.044249144282117
    -0.008125557524092    -0.956670703152309     1.219656613641226
    -0.043488903932404     1.220830958813593    -1.114996762470990
   4  23
    -0.938337538538915    -0.019753794053408    -1.176155104842844
    -0.020018531645103     0.102201238693197    -0.018963877268434
    -1.175107460230365    -0.018444006966935    -1.041282787598709
   4  24
    -0.119967924102883     0.001547192717429    -0.003091200556394
     0.000998139491522    -0.001727301007004    -0.079882659943677
    -0.002260329561477    -0.079617026446043     0.018701786987783
   4  25
    -0.015345171158836     0.083377048586947     0.049501464185271
     0.082959969463228    -0.077804284788919    -0.040296857594571
     0.050350402861305    -0.039821885707636    -0.024569780612723
   4  26
    -0.034454387326229    -0.003939452776473     0.006545043037111
    -0.003595341245317    -0.006110739235877     0.039953542155732
     0.006743444818809     0.030916851677025    -0.024817141995306
   4  27
     0.022023174255227     0.021923158452382    -0.013411216870907
     0.011537493407833    -0.007802903141258     0.009883746474079
    -0.003495214072154     0.016989020269908    -0.067059885449592
   4  28
    -0.011711201249148    -0.019479926054468    -0.024075370811665
    -0.023988267682277    -0.007349990275831    -0.018012508701353
    -0.023903275208367    -0.024417276058205    -0.035421017889680
   4  29
     0.158427348557312    -0.005737133131624     0.016981897630201
     0.012222073890201    -0.910064454461811    -1.119755711894061
     0.020962822559813    -1.075784245603874    -0.950041755444216
   4  30
    -0.911207922851231     0.007745816433235     1.116887178315152
     0.002196443475252     0.151925811068153    -0.010975221803449
     1.081186417514678    -0.018651325307304    -0.968129205720003
   5   1
    -1.044456499704626    -1.039217779325738     0.019277219562835
    -1.157816514493954    -1.063055070657050     0.002191038734369
     0.005501533512108    -0.015204870415076     0.097176298852420
   5   2
     0.106592852434579    -0.024848401784379     0.020937333232230
    -0.002913343268140     0.115699498549732    -0.022204612500190
     0.008833196578343    -0.001413814879808     0.073683270885949
   5   3
     0.106548271085706    -0.002496180515196     0.008070253934416
    -0.025229140791054     0.115775968195713    -0.002234697211758
     0.021785183189905    -0.021259078711531     0.073879862822211
   5   4
    -1.044435595337939    -1.157736246162968     0.004676655358805
    -1.040013513396886    -1.063022366066324    -0.015440043115381
     0.019783837433979     0.002808806028610     0.097559200432241
   5   5
     7.534596522788806     0.047694404695667    -0.225766287481387
     0.059050538715452     7.572218178690064     0.179669939881774
    -0.250593518684732     0.162123285955612     7.502451000059847
   5   6
     0.089048240069043    -0.035792706015124    -0.003565981667209
    -0.011997637663689    -0.938795958346199    -1.195464788886716
    -0.049834603187222    -1.196171309882054    -0.984353076399746
   5   7
    -0.033798901230184    -0.052625441552826    -0.008837298443895
    -0.051709864676850    -0.065490973274536    -0.065652279404960
    -0.049025789259715    -0.049733097037197    -0.027051131323585
   5   8
    -0.023897773781915     0.047785968842473    -0.025320597956043
     0.059828964850896    -0.068238380157136     0.022677450520024
    -0.013924570606354     0.020884903309443    -0.096175232142707
   5   9
    -0.114553233071100     0.007180647633088     0.042526023460738
    -0.010960988124970    -0.030599889971157     0.043370013981204
     0.027616814694849     0.082898860604559    -0.035031804990533
   5  10
    -0.948897184428044    -0.008882552168020     1.184884206543219
    -0.028576698198824     0.078123365203308     0.011573980207503
     1.177500348363093     0.060711305227748    -0.999552087932765
   5  11
    -0.065807188271058    -0.022926302882138    -0.022369286148890
    -0.027321377045664     0.037410806436529     0.000085173009646
     0.003548903723716     0.011597404810381     0.064974949380408
   5  12
    -0.792421483915726    -0.000623107333560    -1.017595442323933
     0.017994246458926     0.093070981922361    -0.019460417236111
    -0.891619049154871    -0.024419844547272    -0.882410382104982
   5  13
     0.032861193421785     0.046471415890086    -0.023893486020978
     0.040845283865590    -0.819738714416199     1.045500271685330
    -0.032499796526127     0.920643560414450    -0.963033200040075
   5  14
     0.097324511657959    -0.025416383016432     0.004954434160758
    -0.051773957853486    -0.022906721270887     0.033936659946408
    -0.000376141690315     0.014239732890458     0.089109021951771
   5  15
    -0.010259958901855     0.050361460976901     0.062510918046401
     0.062492586499119    -0.029528071279342    -0.054388386537186
     0.048062501358709    -0.032931017218014    -0.064129225612499
   5  16
    -0.840401909953424     0.880382316955910     0.033521092520906
     0.858810677883791    -0.858861256169455    -0.013291997345571
    -0.003653024414383     0.023408394968706     0.049089415923978
   5  17
    -0.188151992392259     0.001000067598496     0.029227072854110
     0.002978791592468    -0.013389973457741    -0.006422815627490
    -0.014973434521138     0.017392686147741     0.024627131188531
   5  18
    -1.162935429128911     1.295172041014250    -0.035965337276347
     1.294247396110859    -1.175330716274081     0.047033715644576
     0.011271006810128    -0.012928356365910     0.132510017474316
   5  19
     0.028234230251080    -0.006438447710457    -0.024642317574595
     0.008049950273598    -0.048288841969113    -0.011206781479661
     0.003871337447976    -0.004328979398082     0.018068326747277
   5  20
     0.011140155213691     0.002282909807832    -0.013317477288817
     0.009572835522062    -0.057107621404016    -0.002993278804269
     0.005386722613249    -0.012308751423030    -0.007858065288206
   5  21
    -0.015345171158836     0.083377048586947     0.049501464185271
     0.082959969463228    -0.077804284788919    -0.040296857594571
     0.050350402861305    -0.039821885707636    -0.024569780612723
   5  22
     0.029204347993309    -0.059340756327973     0.061754756332305
    -0.059745216290092    -0.044540160770929     0.041114223746874
     0.062351840579124     0.041988370786819     0.044081269446332
   5  23
     0.085039446412991    -0.007669837503892    -0.044249144282117
    -0.008125557524092    -0.956670703152309     1.219656613641226