30
Lattice="1.9798137831415172 -3.950122490608335 6.024600908187197 7.889280080723969 -0.0104723145166257 0.0030206811020059 3.9390647704029145 5.910443541424694 6.021721330415072" Properties=Z:I:1:pos:R:3:vasp_force:R:3 uuid=32dd1ba9-b436-4bfc-8e28-591beabed3d3 vasp_virial="-0.15270945974738168 0.057082509412562744 -0.010778286902300354 0.057082509412562744 -0.017871189409241563 8.774724750855103e-05 -0.010778286902300354 8.774724750855103e-05 0.0472197187926016" vasp_energy=-144.33931967 pbc="T T T"
      46       3.94093424      -1.97439309       6.06433550      -0.01654400       0.03977200      -0.05963400 
      46       5.90799053       0.00091278       6.05629996      -0.00316100      -0.00218000      -0.00142400 
      46       7.87769675       1.97093152       6.05632818       0.00188800       0.00108700      -0.00131800 
      46       9.84740296       3.94095026       6.05635640       0.00036600       0.00201900      -0.00071500 
      46       7.87804440       0.00052547       0.03466329      -0.00254600      -0.00104000      -0.00169700 
      46       9.85371168      -1.97494400       8.03576459      -0.00754400      -0.00058700       0.00431400 
      46       3.93413781       0.00554706       8.03277213      -0.00079900       0.00496100       0.00176200 
      46       5.90384402       1.97556580       8.03280035       0.00082100       0.00031100      -0.00002300 
      46       7.87355024       3.94558455       8.03282857       0.00081400      -0.00140400       0.00108000 
      46       5.90419168       0.00515975       2.01113546       0.00077900      -0.00198000       0.00053000 
      46       7.88556207       3.93331289       4.01649457       0.00031700      -0.00078900      -0.00025500 
      46      11.83508207       1.95320915      10.04112370      -0.00054300      -0.00103800      -0.00035100 
      46       1.97644343      -1.97674334       4.01640991       0.00946400       0.00071200       0.00907300 
      46       3.94614964      -0.00672459       4.01643813       0.00048700      -0.01132900       0.01356100 
      46       5.91585586       1.96329415       4.01646635      -0.00087400      -0.00079900      -0.00036200 
      46       5.92752160       3.92143051       6.02179773       0.00064800       0.00015000      -0.00005500 
      46       7.89722782       5.89144925       6.02182595       0.00650300      -0.00641500      -0.00024200 
      46       7.90768304      -1.99909804       6.02473374       0.00105200       0.00011700       0.00011900 
      46       9.87738926      -0.02907930       6.02476197       0.00961800      -0.00957500      -0.00128500 
      46       3.95781539       1.95141176       6.02176951       0.00005200       0.00027100       0.00012100 
      46       7.90353810      -0.02444384       8.00123346      -0.00103500       0.00031700       0.00023400 
      46       9.87324432       1.94557490       8.00126168      -0.00170700       0.00014400       0.00035000 
      46      11.84295053       3.91559364       8.00128990      -0.00129300      -0.00031200      -0.00028000 
      46       1.98431189      -0.01435884       1.97657611      -0.00054100      -0.01622600       0.01594800 
      46       5.93383189      -1.99446259       8.00120524       0.01070700       0.00066000       0.01259100 
      47       7.89044430       1.95844777      10.03961369      -0.00089600       0.00311400       0.00188100 
      47       5.92108574      -1.98197703       4.01792058      -0.00608600       0.00104600       0.00449400 
      47       7.89079195      -0.01195829       4.01794880       0.00005100      -0.00000000       0.00073800 
      47       9.86049817       1.95806046       4.01797702      -0.00022600      -0.00071200       0.00080000 
      47       5.92073808      -0.01157098      10.03958547       0.00022900      -0.00029200       0.00004400 
30
Lattice="1.9798137831415172 -3.950122490608335 6.024600908187197 7.889280080723969 -0.0104723145166257 0.0030206811020059 3.9390647704029145 5.910443541424694 6.021721330415072" Properties=Z:I:1:pos:R:3:vasp_force:R:3 uuid=50aa46d0-f43d-40bc-adce-4d04ed819b35 vasp_virial="-0.14869648562799062 0.05119759401298925 -0.012676552356735342 0.05119759401298925 -0.009391880391665247 0.007783180854008478 -0.012676552356735342 0.007783180854008478 0.0366871241833252" vasp_energy=-144.33933676 pbc="T T T"
      46       3.93828432      -1.96910597       6.05627174      -0.00877000       0.00114400       0.01125600 
      46       5.90799053       0.00091278       6.05629996      -0.00088300       0.00045200      -0.00037400 
      46       7.87769675       1.97093152       6.05632818       0.00205700       0.00099000      -0.00072400 
      46       9.84740296       3.94095026       6.05635640       0.00066100       0.00069900      -0.00059700 
      46       7.87804440       0.00052547       0.03466329       0.00127900       0.00141300      -0.00129700 
      46       9.84371169      -1.97493072       8.03576076       0.07735000       0.00143500       0.00167000 
      46       3.93413781       0.00554706       8.03277213      -0.01083500      -0.00987200      -0.00012500 
      46       5.90384402       1.97556580       8.03280035       0.00126200       0.00007600      -0.00012600 
      46       7.87355024       3.94558455       8.03282857       0.00096800      -0.00054400       0.00016900 
      46       5.90419168       0.00515975       2.01113546      -0.00949700      -0.01317400       0.00002300 
      46       7.88556207       3.93331289       4.01649457       0.00097300      -0.00092700      -0.00089800 
      46      11.83508207       1.95320915      10.04112370      -0.00060700      -0.00169600      -0.00033100 
      46       1.97644343      -1.97674334       4.01640991       0.00065600      -0.00002000      -0.00046800 
      46       3.94614964      -0.00672459       4.01643813      -0.00087100       0.00001900       0.00110000 
      46       5.91585586       1.96329415       4.01646635      -0.01037600      -0.00091600       0.01154500 
      46       5.92752160       3.92143051       6.02179773       0.00070500       0.00102500       0.00036900 
      46       7.89722782       5.89144925       6.02182595      -0.00099700       0.00059200       0.00045900 
      46       7.90768304      -1.99909804       6.02473374      -0.00881800      -0.00006000      -0.01173200 
      46       9.87738926      -0.02907930       6.02476197       0.00078600      -0.00052500      -0.00044100 
      46       3.95781539       1.95141176       6.02176951       0.00086800       0.00006600       0.00004700 
      46       7.90353810      -0.02444384       8.00123346      -0.01316200       0.01286100       0.00088300 
      46       9.87324432       1.94557490       8.00126168      -0.00146600       0.00052600       0.00050300 
      46      11.84295053       3.91559364       8.00128990      -0.00024900       0.00019500       0.00004000 
      46       1.98431189      -0.01435884       1.97657611      -0.00883700       0.00740500       0.00002400 
      46       5.93383189      -1.99446259       8.00120524      -0.00322200      -0.00009100       0.00079400 
      47       7.89044430       1.95844777      10.03961369      -0.00041200      -0.00057000       0.00023600 
      47       5.92108574      -1.98197703       4.01792058       0.00008500       0.00011300      -0.00021700 
      47       7.89079195      -0.01195829       4.01794880       0.00162000       0.00034100       0.00003900 
      47       9.86049817       1.95806046       4.01797702      -0.01019800      -0.00051300      -0.01174100 
      47       5.92073808      -0.01157098      10.03958547      -0.00006900      -0.00044400      -0.00008600 
30
Lattice="1.9798137831415172 -3.950122490608335 6.024600908187197 7.889280080723969 -0.0104723145166257 0.0030206811020059 3.9390647704029145 5.910443541424694 6.021721330415072" Properties=Z:I:1:pos:R:3:vasp_force:R:3 uuid=207e860d-7bd7-416d-8c58-0e79f8a80843 vasp_virial="-0.15335293956244436 0.05672859551427826 -0.014422722582155505 0.05672859551427826 -0.02440543444037833 0.0014770786663939426 -0.014422722582155505 0.0014770786663939426 0.035903248772248805" vasp_energy=-144.33929017 pbc="T T T"
      46       3.93828432      -1.96910597       6.05627174      -0.00302300       0.00099100       0.00081100 
      46       5.90799053       0.00091278       6.05629996       0.00040200       0.00053200      -0.00103500 
      46       7.87769675       1.97093152       6.05632818       0.00223900       0.00042700      -0.00001100 
      46       9.84740296       3.94095026       6.05635640       0.00151200       0.00226700       0.00061000 
      46       7.87804440       0.00052547       0.03466329       0.00026500       0.01498100       0.01307800 
      46       9.85794184      -1.96859677       8.04223131      -0.03597900      -0.04944500      -0.05192700 
      46       3.93413781       0.00554706       8.03277213       0.01118200       0.01103500      -0.00032200 
      46       5.90384402       1.97556580       8.03280035       0.00017600      -0.00032100      -0.00052100 
      46       7.87355024       3.94558455       8.03282857       0.00021200      -0.00155700      -0.00032000 
      46       5.90419168       0.00515975       2.01113546       0.01152800       0.01012700      -0.00044000 
      46       7.88556207       3.93331289       4.01649457       0.00081500       0.01251000       0.01377500 
      46      11.83508207       1.95320915      10.04112370      -0.00002000      -0.00008300       0.00121500 
      46       1.97644343      -1.97674334       4.01640991       0.00016400       0.00007300       0.00031300 
      46       3.94614964      -0.00672459       4.01643813       0.00037000       0.00005600       0.00000500 
      46       5.91585586       1.96329415       4.01646635      -0.00278400      -0.00146400       0.00165800 
      46       5.92752160       3.92143051       6.02179773      -0.00009800       0.00096900       0.00064200 
      46       7.89722782       5.89144925       6.02182595      -0.00010900       0.00031600       0.00017700 
      46       7.90768304      -1.99909804       6.02473374       0.01206200       0.00006800       0.01168800 
      46       9.87738926      -0.02907930       6.02476197      -0.00031500      -0.00193500      -0.00192700 
      46       3.95781539       1.95141176       6.02176951       0.00020600       0.00045500      -0.00008900 
      46       7.90353810      -0.02444384       8.00123346      -0.00443300       0.00136400      -0.00003300 
      46       9.87324432       1.94557490       8.00126168      -0.00169300       0.00080000       0.00038800 
      46      11.84295053       3.91559364       8.00128990      -0.00035700       0.00044500       0.00012300 
      46       1.98431189      -0.01435884       1.97657611      -0.00282700       0.00089400      -0.00034700 
      46       5.93383189      -1.99446259       8.00120524      -0.00076500      -0.00000000       0.00077100 
      47       7.89044430       1.95844777      10.03961369      -0.00055700      -0.00049900       0.00030000 
      47       5.92108574      -1.98197703       4.01792058       0.00021900      -0.00001700      -0.00019700 
      47       7.89079195      -0.01195829       4.01794880      -0.00045300      -0.00094400      -0.00049900 
      47       9.86049817       1.95806046       4.01797702       0.01192600      -0.00170300       0.01217400 
      47       5.92073808      -0.01157098      10.03958547       0.00013500      -0.00034000      -0.00005900 
30
Lattice="1.9798137831415172 -3.950122490608335 6.024600908187197 7.889280080723969 -0.0104723145166257 0.0030206811020059 3.9390647704029145 5.910443541424694 6.021721330415072" Properties=Z:I:1:pos:R:3:vasp_force:R:3 uuid=e0c20a18-ada0-4371-b53d-70a3c69603b6 vasp_virial="-0.15384432414849225 0.055514758590409954 -0.017192610695175435 0.055514758590409954 -0.01601094776206028 0.013755843501090518 -0.017192610695175435 0.013755843501090518 0.04169456710781318" vasp_energy=-144.33931769 pbc="T T T"
      46       3.93828432      -1.96910597       6.05627174       0.00415200       0.00186400      -0.00142700 
      46       5.90799053       0.00091278       6.05629996       0.00006700       0.00058000      -0.00025000 
      46       7.87769675       1.97093152       6.05632818       0.00231600       0.00033700      -0.00115700 
      46       9.84740296       3.94095026       6.05635640       0.00043300       0.00013000      -0.00082800 
      46       7.87804440       0.00052547       0.03466329       0.00050800      -0.01251800      -0.01530000 
      46       9.84948152      -1.98129122       8.02929786       0.03558200       0.04886500       0.05139500 
      46       3.93413781       0.00554706       8.03277213      -0.01254500      -0.01033800       0.00048600 
      46       5.90384402       1.97556580       8.03280035       0.00106000       0.00051900       0.00062000 
      46       7.87355024       3.94558455       8.03282857       0.00046000       0.00004400       0.00049000 
      46       5.90419168       0.00515975       2.01113546      -0.01038500      -0.01279800       0.00071400 
      46       7.88556207       3.93331289       4.01649457      -0.00013400      -0.01352900      -0.01388600 
      46      11.83508207       1.95320915      10.04112370      -0.00102700      -0.00233100      -0.00105300 
      46       1.97644343      -1.97674334       4.01640991       0.00038900      -0.00005000      -0.00127000 
      46       3.94614964      -0.00672459       4.01643813      -0.00018600       0.00046000       0.00088400 
      46       5.91585586       1.96329415       4.01646635       0.00210800       0.00014800      -0.00133000 
      46       5.92752160       3.92143051       6.02179773       0.00144200      -0.00029900      -0.00097300 
      46       7.89722782       5.89144925       6.02182595      -0.00064100       0.00107200       0.00043700 
      46       7.90768304      -1.99909804       6.02473374      -0.01158400       0.00062400      -0.01124700 
      46       9.87738926      -0.02907930       6.02476197       0.00015000       0.00157900       0.00072500 
      46       3.95781539       1.95141176       6.02176951       0.00004300       0.00045200       0.00057100 
      46       7.90353810      -0.02444384       8.00123346       0.00170200      -0.00203100       0.00155800 
      46       9.87324432       1.94557490       8.00126168      -0.00186300       0.00008100       0.00054800 
      46      11.84295053       3.91559364       8.00128990      -0.00041700      -0.00025800      -0.00014100 
      46       1.98431189      -0.01435884       1.97657611       0.00166900      -0.00293700       0.00049800 
      46       5.93383189      -1.99446259       8.00120524      -0.00196700      -0.00025900       0.00112300 
      47       7.89044430       1.95844777      10.03961369      -0.00017100      -0.00104000       0.00000200 
      47       5.92108574      -1.98197703       4.01792058       0.00010200       0.00023800      -0.00038800 
      47       7.89079195      -0.01195829       4.01794880       0.00055800       0.00149100       0.00110000 
      47       9.86049817       1.95806046       4.01797702      -0.01198300       0.00061400      -0.01148300 
      47       5.92073808      -0.01157098      10.03958547       0.00016000      -0.00071100      -0.00041700 
30
Lattice="1.9798137831415172 -3.950122490608335 6.024600908187197 7.889280080723969 -0.0104723145166257 0.0030206811020059 3.9390647704029145 5.910443541424694 6.021721330415072" Properties=Z:I:1:pos:R:3:vasp_force:R:3 uuid=c0510020-7488-4845-a874-0605b0d84c95 vasp_virial="-0.15444100543155043 0.05581894904843961 -0.015715532028781492 0.05581894904843961 -0.019974198441196505 0.006551794480638478 -0.015715532028781492 0.006551794480638478 0.03932246651683201" vasp_energy=-144.33933194 pbc="T T T"
      46       3.93828432      -1.96910597       6.05627174       0.00034800       0.00155700      -0.00007200 
      46       5.90799053       0.00091278       6.05629996      -0.00018500       0.00030300      -0.00127100 
      46       7.87769675       1.97093152       6.05632818       0.00260800      -0.01276100       0.01242900 
      46       9.84740296       3.94095026       6.05635640       0.01149100       0.00185000       0.00944100 
      46       7.87804440       0.00052547       0.03466329       0.00061200       0.00180400      -0.00127800 
      46       9.85371168      -1.97494400       8.03576459      -0.00010300       0.00347000       0.00198700 
      46       3.93413781       0.00554706       8.03277213      -0.00732700      -0.00004800       0.00608200 
      46       5.90384402       1.97556580       8.03280035       0.00023800      -0.00035200       0.00050600 
      46       7.87355024       3.94558455       8.03282857       0.00022500      -0.00077500       0.00109000 
      46       5.90419168       0.00515975       2.01113546       0.00089200      -0.00079800       0.00042300 
      46       7.88821199       3.92802577       4.02455833      -0.02162700       0.04098200      -0.05944700 
      46      11.83508207       1.95320915      10.04112370      -0.00375600      -0.00369000       0.00027200 
      46       1.97644343      -1.97674334       4.01640991       0.00030200       0.00021500      -0.00105500 
      46       3.94614964      -0.00672459       4.01643813       0.00011800       0.00045500      -0.00013200 
      46       5.91585586       1.96329415       4.01646635      -0.00357500      -0.00310300       0.00032600 
      46       5.92752160       3.92143051       6.02179773      -0.00589000       0.00016000       0.00585400 
      46       7.89722782       5.89144925       6.02182595      -0.00014000       0.00478100       0.00300100 
      46       7.90768304      -1.99909804       6.02473374       0.00056500       0.00064800       0.00072100 
      46       9.87738926      -0.02907930       6.02476197      -0.00017600      -0.00018400       0.00039700 
      46       3.95781539       1.95141176       6.02176951      -0.00023900      -0.00000000       0.00068500 
      46       7.90353810      -0.02444384       8.00123346       0.00874600       0.00027000       0.00995800 
      46       9.87324432       1.94557490       8.00126168      -0.00138600      -0.01213300       0.01293000 
      46      11.84295053       3.91559364       8.00128990      -0.00080600      -0.00013500      -0.00063500 
      46       1.98431189      -0.01435884       1.97657611      -0.00078800      -0.00088600       0.00029700 
      46       5.93383189      -1.99446259       8.00120524      -0.00112700       0.00017000       0.00050600 
      47       7.89044430       1.95844777      10.03961369       0.01001300      -0.01068800      -0.00115200 
      47       5.92108574      -1.98197703       4.01792058       0.00017400      -0.00018200      -0.00037100 
      47       7.89079195      -0.01195829       4.01794880       0.00006200      -0.00004000       0.00023900 
      47       9.86049817       1.95806046       4.01797702       0.01038100      -0.01062700      -0.00125300 
      47       5.92073808      -0.01157098      10.03958547       0.00035400      -0.00026400      -0.00047800 
30
Lattice="1.9798137831415172 -3.950122490608335 6.024600908187197 7.889280080723969 -0.0104723145166257 0.0030206811020059 3.9390647704029145 5.910443541424694 6.021721330415072" Properties=Z:I:1:pos:R:3:vasp_force:R:3 uuid=11aac89f-b213-4798-ac77-7c04a1c92c94 vasp_virial="-0.1541163406157688 0.055851123039192735 -0.015680433129778074 0.055851123039192735 -0.0200531709639542 0.006706814617903584 -0.015680433129778074 0.006706814617903584 0.03878720830702985" vasp_energy=-144.33932118 pbc="T T T"
      46       3.93828432      -1.96910597       6.05627174       0.00077100       0.00127100      -0.00051800 
      46       5.90799053       0.00091278       6.05629996       0.00067900       0.00076700       0.00000300 
      46       7.87769675       1.97093152       6.05632818       0.00190600       0.01294000      -0.01302200 
      46       9.84740296       3.94095026       6.05635640      -0.00911200       0.00059400      -0.00927100 
      46       7.87804440       0.00052547       0.03466329       0.00014800       0.00120900      -0.00035200 
      46       9.85371168      -1.97494400       8.03576459      -0.00055700      -0.00465500      -0.00337300 
      46       3.93413781       0.00554706       8.03277213       0.00570400       0.00032600      -0.00588600 
      46       5.90384402       1.97556580       8.03280035       0.00101200       0.00054200      -0.00037400 
      46       7.87355024       3.94558455       8.03282857       0.00045300      -0.00075700      -0.00090700 
      46       5.90419168       0.00515975       2.01113546       0.00065000      -0.00148900      -0.00019700 
      46       9.86272593      -0.01152247      10.03303172       0.02209200      -0.04170000       0.05901400 
      46      11.83508207       1.95320915      10.04112370       0.00273700       0.00121600      -0.00004600 
      46       1.97644343      -1.97674334       4.01640991       0.00027000      -0.00019500       0.00011600 
      46       3.94614964      -0.00672459       4.01643813       0.00008600       0.00004500       0.00103900 
      46       5.91585586       1.96329415       4.01646635       0.00291900       0.00180400       0.00000800 
      46       5.92752160       3.92143051       6.02179773       0.00714200       0.00053400      -0.00611300 
      46       7.89722782       5.89144925       6.02182595      -0.00059300      -0.00334200      -0.00235700 
      46       7.90768304      -1.99909804       6.02473374       0.00032300      -0.00004200       0.00010100 
      46       9.87738926      -0.02907930       6.02476197       0.00005200      -0.00016700      -0.00160000 
      46       3.95781539       1.95141176       6.02176951       0.00053400       0.00089400      -0.00019400 
      46       7.90353810      -0.02444384       8.00123346      -0.01185600      -0.00098600      -0.00875400 
      46       9.87324432       1.94557490       8.00126168      -0.00208700       0.01356700      -0.01252000 
      46      11.84295053       3.91559364       8.00128990       0.00005900       0.00032900       0.00063900 
      46       1.98431189      -0.01435884       1.97657611      -0.00036500      -0.00117200      -0.00014900 
      46       5.93383189      -1.99446259       8.00120524      -0.00159200      -0.00042500       0.00143100 
      47       7.89044430       1.95844777      10.03961369      -0.01096600       0.00934800       0.00157100 
      47       5.92108574      -1.98197703       4.01792058       0.00017100       0.00039200      -0.00019700 
      47       7.89079195      -0.01195829       4.01794880       0.00005900       0.00053400       0.00041300 
      47       9.86049817       1.95806046       4.01797702      -0.01059600       0.00940700       0.00147000 
      47       5.92073808      -0.01157098      10.03958547      -0.00004500      -0.00079100       0.00002500 
30
Lattice="1.9798137831415172 -3.950122490608335 6.024600908187197 7.889280080723969 -0.0104723145166257 0.0030206811020059 3.9390647704029145 5.910443541424694 6.021721330415072" Properties=Z:I:1:pos:R:3:vasp_force:R:3 uuid=b7a7b6c1-5e97-41a9-8604-161433c8b7a3 vasp_virial="-0.15433570873454017 0.055520608406910525 -0.015987548496058 0.055520608406910525 -0.019877676468937098 0.007072428149189214 -0.015987548496058 0.007072428149189214 0.03839234569324136" vasp_energy=-144.33930937 pbc="T T T"
      46       3.93828432      -1.96910597       6.05627174       0.00065700       0.00078200      -0.00076400 
      46       5.90799053       0.00091278       6.05629996      -0.00072700       0.00105400      -0.00060300 
      46       7.87769675       1.97093152       6.05632818       0.00194700      -0.00004400      -0.00022100 
      46       9.84740296       3.94095026       6.05635640       0.00903200       0.00101100       0.00899700 
      46       7.87804440       0.00052547       0.03466329       0.00103500       0.00177100      -0.00083800 
      46       9.85371168      -1.97494400       8.03576459      -0.00093200      -0.00027900       0.00011900 
      46       3.93413781       0.00554706       8.03277213       0.00918400       0.00020100      -0.01040600 
      46       5.90384402       1.97556580       8.03280035       0.00161600       0.00044900      -0.00051600 
      46       7.87355024       3.94558455       8.03282857      -0.00002200      -0.00081900       0.00019500 
      46       5.90419168       0.00515975       2.01113546       0.00086900      -0.00071200       0.00037300 
      46       7.89556206       3.93329962       4.01649840      -0.07896100       0.00450200       0.00170000 
      46      11.83508207       1.95320915      10.04112370       0.00986500       0.01049100       0.00025700 
      46       1.97644343      -1.97674334       4.01640991      -0.00034300      -0.00051100      -0.00058600 
      46       3.94614964      -0.00672459       4.01643813      -0.00051900      -0.00025700       0.00035200 
      46       5.91585586       1.96329415       4.01646635       0.00978600       0.01065500       0.00034900 
      46       5.92752160       3.92143051       6.02179773       0.01048700       0.00037700      -0.01029800 
      46       7.89722782       5.89144925       6.02182595      -0.00096000       0.00097300       0.00113800 
      46       7.90768304      -1.99909804       6.02473374       0.00053600       0.00074800       0.00068400 
      46       9.87738926      -0.02907930       6.02476197      -0.00043100      -0.00023500      -0.00049700 
      46       3.95781539       1.95141176       6.02176951       0.00111100       0.00079400      -0.00031100 
      46       7.90353810      -0.02444384       8.00123346       0.00645000      -0.00052800       0.00954200 
      46       9.87324432       1.94557490       8.00126168      -0.00209700      -0.00001400       0.00083500 
      46      11.84295053       3.91559364       8.00128990      -0.00135600       0.00059400       0.00000100 
      46       1.98431189      -0.01435884       1.97657611      -0.00047800      -0.00167000      -0.00040400 
      46       5.93383189      -1.99446259       8.00120524      -0.00070800       0.00013800       0.00093800 
      47       7.89044430       1.95844777      10.03961369       0.01132700      -0.01447600       0.00016800 
      47       5.92108574      -1.98197703       4.01792058       0.00013600       0.00010700      -0.00035600 
      47       7.89079195      -0.01195829       4.01794880       0.00002600       0.00025000       0.00025500 
      47       9.86049817       1.95806046       4.01797702       0.01176900      -0.01467500       0.00016100 
      47       5.92073808      -0.01157098      10.03958547       0.00170000      -0.00067700      -0.00026600 
30
Lattice="1.9798137831415172 -3.950122490608335 6.024600908187197 7.889280080723969 -0.0104723145166257 0.0030206811020059 3.9390647704029145 5.910443541424694 6.021721330415072" Properties=Z:I:1:pos:R:3:vasp_force:R:3 uuid=0ee1626f-f2b9-4d14-b758-fcafab75396a vasp_virial="-0.15351380951621005 0.055816024140189324 -0.015677508221527785 0.055816024140189324 -0.019333643534384083 0.007198199203951471 -0.015677508221527785 0.007198199203951471 0.03922009472807202" vasp_energy=-144.33930142 pbc="T T T"
      46       3.93828432      -1.96910597       6.05627174       0.00044600       0.00204100       0.00017500 
      46       5.90799053       0.00091278       6.05629996       0.00121400       0.00002400      -0.00064100 
      46       7.87769675       1.97093152       6.05632818       0.00260200       0.00080700      -0.00093300 
      46       9.84740296       3.94095026       6.05635640      -0.00683100       0.00137800      -0.00886200 
      46       7.87804440       0.00052547       0.03466329      -0.00028700       0.00122800      -0.00079200 
      46       9.85371168      -1.97494400       8.03576459       0.00024800      -0.00086000      -0.00151700 
      46       3.93413781       0.00554706       8.03277213      -0.01068800       0.00009500       0.01026000 
      46       5.90384402       1.97556580       8.03280035      -0.00035400      -0.00026600       0.00061500 
      46       7.87355024       3.94558455       8.03282857       0.00069300      -0.00072000      -0.00002000 
      46       5.90419168       0.00515975       2.01113546       0.00066400      -0.00160200      -0.00016900 
      46       7.87556208       3.93332617       4.01649074       0.07986800      -0.00482300      -0.00191500 
      46      11.83508207       1.95320915      10.04112370      -0.01063800      -0.01255400      -0.00007700 
      46       1.97644343      -1.97674334       4.01640991       0.00089100       0.00050400      -0.00037600 
      46       3.94614964      -0.00672459       4.01643813       0.00071600       0.00075700       0.00056200 
      46       5.91585586       1.96329415       4.01646635      -0.01072000      -0.01239300       0.00001500 
      46       5.92752160       3.92143051       6.02179773      -0.00938400       0.00027200       0.01036700 
      46       7.89722782       5.89144925       6.02182595       0.00022100       0.00039200      -0.00049800 
      46       7.90768304      -1.99909804       6.02473374       0.00033100      -0.00014300       0.00014300 
      46       9.87738926      -0.02907930       6.02476197       0.00028400      -0.00013600      -0.00071200 
      46       3.95781539       1.95141176       6.02176951      -0.00085900       0.00007900       0.00082000 
      46       7.90353810      -0.02444384       8.00123346      -0.00941300      -0.00016000      -0.00831800 